 Entering Gaussian System, Link 0=/home/ely/Documents/g16/g16rheticus/g16_a03/cpu/g16/g16
 Initial command:
 /home/ely/Documents/g16/g16rheticus/g16_a03/cpu/g16/l1.exe "/tmp/Gau-1315383.inp" -scrdir="/tmp/"
 Entering Link 1 = /home/ely/Documents/g16/g16rheticus/g16_a03/cpu/g16/l1.exe PID=   1315385.
  
 Copyright (c) 1988,1990,1992,1993,1995,1998,2003,2009,2016,
            Gaussian, Inc.  All Rights Reserved.
  
 This is part of the Gaussian(R) 16 program.  It is based on
 the Gaussian(R) 09 system (copyright 2009, Gaussian, Inc.),
 the Gaussian(R) 03 system (copyright 2003, Gaussian, Inc.),
 the Gaussian(R) 98 system (copyright 1998, Gaussian, Inc.),
 the Gaussian(R) 94 system (copyright 1995, Gaussian, Inc.),
 the Gaussian 92(TM) system (copyright 1992, Gaussian, Inc.),
 the Gaussian 90(TM) system (copyright 1990, Gaussian, Inc.),
 the Gaussian 88(TM) system (copyright 1988, Gaussian, Inc.),
 the Gaussian 86(TM) system (copyright 1986, Carnegie Mellon
 University), and the Gaussian 82(TM) system (copyright 1983,
 Carnegie Mellon University). Gaussian is a federally registered
 trademark of Gaussian, Inc.
  
 This software contains proprietary and confidential information,
 including trade secrets, belonging to Gaussian, Inc.
  
 This software is provided under written license and may be
 used, copied, transmitted, or stored only in accord with that
 written license.
  
 The following legend is applicable only to US Government
 contracts under FAR:
  
                    RESTRICTED RIGHTS LEGEND
  
 Use, reproduction and disclosure by the US Government is
 subject to restrictions as set forth in subparagraphs (a)
 and (c) of the Commercial Computer Software - Restricted
 Rights clause in FAR 52.227-19.
  
 Gaussian, Inc.
 340 Quinnipiac St., Bldg. 40, Wallingford CT 06492
  
  
 ---------------------------------------------------------------
 Warning -- This program may not be used in any manner that
 competes with the business of Gaussian, Inc. or will provide
 assistance to any competitor of Gaussian, Inc.  The licensee
 of this program is prohibited from giving any competitor of
 Gaussian, Inc. access to this program.  By using this program,
 the user acknowledges that Gaussian, Inc. is engaged in the
 business of creating and licensing software in the field of
 computational chemistry and represents and warrants to the
 licensee that it is not a competitor of Gaussian, Inc. and that
 it will not use this program in any manner prohibited above.
 ---------------------------------------------------------------
  

 Cite this work as:
 Gaussian 16, Revision A.03,
 M. J. Frisch, G. W. Trucks, H. B. Schlegel, G. E. Scuseria, 
 M. A. Robb, J. R. Cheeseman, G. Scalmani, V. Barone, 
 G. A. Petersson, H. Nakatsuji, X. Li, M. Caricato, A. V. Marenich, 
 J. Bloino, B. G. Janesko, R. Gomperts, B. Mennucci, H. P. Hratchian, 
 J. V. Ortiz, A. F. Izmaylov, J. L. Sonnenberg, D. Williams-Young, 
 F. Ding, F. Lipparini, F. Egidi, J. Goings, B. Peng, A. Petrone, 
 T. Henderson, D. Ranasinghe, V. G. Zakrzewski, J. Gao, N. Rega, 
 G. Zheng, W. Liang, M. Hada, M. Ehara, K. Toyota, R. Fukuda, 
 J. Hasegawa, M. Ishida, T. Nakajima, Y. Honda, O. Kitao, H. Nakai, 
 T. Vreven, K. Throssell, J. A. Montgomery, Jr., J. E. Peralta, 
 F. Ogliaro, M. J. Bearpark, J. J. Heyd, E. N. Brothers, K. N. Kudin, 
 V. N. Staroverov, T. A. Keith, R. Kobayashi, J. Normand, 
 K. Raghavachari, A. P. Rendell, J. C. Burant, S. S. Iyengar, 
 J. Tomasi, M. Cossi, J. M. Millam, M. Klene, C. Adamo, R. Cammi, 
 J. W. Ochterski, R. L. Martin, K. Morokuma, O. Farkas, 
 J. B. Foresman, and D. J. Fox, Gaussian, Inc., Wallingford CT, 2016.
 
 ******************************************
 Gaussian 16:  ES64L-G16RevA.03 25-Dec-2016
                27-May-2024 
 ******************************************
 %chk="neutro.chk"
 %nproc=8
 Will use up to    8 processors via shared memory.
 %mem=4GB
 ------------------------------
 # wB97XD gen freq=(Anharmonic)
 ------------------------------
 1/10=4,30=1,38=21,80=1/1,6,3;
 2/12=2,17=6,18=5,40=1/2;
 3/5=7,11=2,25=1,30=1,71=2,74=-58,140=1/1,2,3;
 4/69=2/1;
 5/5=2,38=5,98=1/2;
 8/6=4,10=90,11=11/1;
 11/6=1,8=1,9=11,15=111,16=1/1,2,10;
 10/6=1,60=-2/2;
 6/7=2,8=2,9=2,10=2,28=1/1;
 7/10=1,25=1,71=2/1,2,3,16;
 1/38=20,80=1/6(3);
 7/8=1,25=202,44=-1,71=1,92=10/16,17;
 1/10=4,30=1,38=20,80=1/3;
 99//99;
 3/5=7,6=1,11=2,25=1,30=1,71=2,74=-58,82=7,140=1/1,2,3;
 4/5=5,16=3,69=2/1;
 5/5=2,38=5,98=1/2;
 8/6=4,10=90,11=11/1;
 11/6=1,8=1,9=11,15=111,16=1/1,2,10;
 10/6=1,60=-2/2;
 6/7=2,8=2,9=2,10=2,28=1/1;
 7/7=1,10=1,25=1,71=1/1,2,3,16;
 1/38=20,80=1/6(-8);
 7/8=1,25=202,44=-1,71=1,92=10/16,17;
 1/10=4,30=1,38=20,80=1/3;
 99//99;
 -------
 3bp PES
 -------
 Symbolic Z-matrix:
 Charge =  0 Multiplicity = 1
 C                     0.00388  -0.76298   0. 
 C                    -2.41438   0.0989    0. 
 O                    -0.57052   1.59423   0. 
 C                    -0.90488   0.43491   0. 
 O                    -2.82496  -1.02916   0. 
 O                    -3.17435   1.18473   0. 
 H                    -0.21416  -1.38039  -0.88255 
 Br                    1.87388  -0.3094    0. 
 H                    -0.21416  -1.38039   0.88255 
 H                    -2.56364   1.94686   0. 
 
 Numerical evaluation of third derivatives.
 Nuclear step= 0.010000 Angstroms, electric field step= 0.000333 atomic units, NStep=1.

 GradGradGradGradGradGradGradGradGradGradGradGradGradGradGradGradGradGrad
 Berny optimization.
 Initialization pass.
 Trust Radius=3.00D-01 FncErr=1.00D-07 GrdErr=1.00D-07 EigMax=2.50D+02 EigMin=1.00D-04
 Number of steps in this run=      2 maximum allowed number of steps=      2.
 GradGradGradGradGradGradGradGradGradGradGradGradGradGradGradGradGradGrad

                          Input orientation:                          
 ---------------------------------------------------------------------
 Center     Atomic      Atomic             Coordinates (Angstroms)
 Number     Number       Type             X           Y           Z
 ---------------------------------------------------------------------
      1          6           0        0.003875   -0.762978    0.000000
      2          6           0       -2.414376    0.098899    0.000000
      3          8           0       -0.570516    1.594229    0.000000
      4          6           0       -0.904880    0.434915    0.000000
      5          8           0       -2.824961   -1.029160    0.000000
      6          8           0       -3.174353    1.184732    0.000000
      7          1           0       -0.214165   -1.380394   -0.882550
      8         35           0        1.873884   -0.309404    0.000000
      9          1           0       -0.214165   -1.380394    0.882550
     10          1           0       -2.563643    1.946858    0.000000
 ---------------------------------------------------------------------
                    Distance matrix (angstroms):
                    1          2          3          4          5
     1  C    0.000000
     2  C    2.567249   0.000000
     3  O    2.426181   2.373991   0.000000
     4  C    1.503590   1.546442   1.206569   0.000000
     5  O    2.841332   1.200457   3.459002   2.414586   0.000000
     6  O    3.727561   1.325367   2.635841   2.390133   2.241293
     7  H    1.098926   2.794303   3.123182   2.133384   2.778222
     8  Br   1.924231   4.307654   3.098211   2.876724   4.753651
     9  H    1.098926   2.794303   3.123182   2.133384   2.778222
    10  H    3.733010   1.853977   2.024081   2.244430   2.987469
                    6          7          8          9         10
     6  O    0.000000
     7  H    4.015156   0.000000
     8  Br   5.264707   2.507162   0.000000
     9  H    4.015156   1.765100   2.507162   0.000000
    10  H    0.976628   4.167679   4.978189   4.167679   0.000000
 Stoichiometry    C3H3BrO3
 Framework group  CS[SG(C3HBrO3),X(H2)]
 Deg. of freedom    16
 Full point group                 CS      NOp   2
 Largest Abelian subgroup         CS      NOp   2
 Largest concise Abelian subgroup CS      NOp   2
                         Standard orientation:                         
 ---------------------------------------------------------------------
 Center     Atomic      Atomic             Coordinates (Angstroms)
 Number     Number       Type             X           Y           Z
 ---------------------------------------------------------------------
      1          6           0        0.000000    0.785581    0.000000
      2          6           0       -2.246967   -0.456155    0.000000
      3          8           0       -0.185489   -1.633499    0.000000
      4          6           0       -0.702996   -0.543547    0.000000
      5          8           0       -2.834635    0.590623    0.000000
      6          8           0       -2.821274   -1.650630    0.000000
      7          1           0       -0.315050    1.359590    0.882550
      8         35           0        1.918754    0.640501    0.000000
      9          1           0       -0.315050    1.359590   -0.882550
     10          1           0       -2.095316   -2.303920    0.000000
 ---------------------------------------------------------------------
 Rotational constants (GHZ):           5.4264129           0.7517457           0.6629947
 General basis read from cards:  (5D, 7F)
 There are   103 symmetry adapted cartesian basis functions of A'  symmetry.
 There are    41 symmetry adapted cartesian basis functions of A"  symmetry.
 There are    94 symmetry adapted basis functions of A'  symmetry.
 There are    41 symmetry adapted basis functions of A"  symmetry.
   135 basis functions,   376 primitive gaussians,   144 cartesian basis functions
    40 alpha electrons       40 beta electrons
       nuclear repulsion energy       468.6865652098 Hartrees.
 NAtoms=   10 NActive=   10 NUniq=    9 SFac= 1.23D+00 NAtFMM=   60 NAOKFM=F Big=F
 Integral buffers will be    131072 words long.
 Raffenetti 2 integral format.
 Two-electron integral symmetry is turned on.
 Nuclear repulsion after empirical dispersion term =      468.6832767196 Hartrees.
 One-electron integrals computed using PRISM.
 NBasis=   135 RedAO= T EigKep=  2.36D-03  NBF=    94    41
 NBsUse=   135 1.00D-06 EigRej= -1.00D+00 NBFU=    94    41
 ExpMin= 4.10D-02 ExpMax= 6.40D+05 ExpMxC= 6.18D+03 IAcc=3 IRadAn=         5 AccDes= 0.00D+00
 Harris functional with IExCor= 4639 and IRadAn=       5 diagonalized for initial guess.
 HarFok:  IExCor= 4639 AccDes= 0.00D+00 IRadAn=         5 IDoV= 1 UseB2=F ITyADJ=14
 ICtDFT=  3500011 ScaDFX=  1.000000  1.000000  1.000000  1.000000
 FoFCou: FMM=F IPFlag=           0 FMFlag=      100000 FMFlg1=           0
         NFxFlg=           0 DoJE=T BraDBF=F KetDBF=T FulRan=T
         wScrn=  0.000000 ICntrl=       500 IOpCl=  0 I1Cent=   200000004 NGrid=           0
         NMat0=    1 NMatS0=      1 NMatT0=    0 NMatD0=    1 NMtDS0=    0 NMtDT0=    0
 Petite list used in FoFCou.
 Initial guess orbital symmetries:
       Occupied  (A') (A') (A') (A') (A") (A') (A') (A') (A') (A')
                 (A') (A') (A') (A') (A") (A') (A') (A") (A') (A")
                 (A') (A') (A') (A') (A') (A') (A') (A') (A") (A')
                 (A') (A") (A') (A") (A') (A') (A") (A') (A") (A')
       Virtual   (A") (A') (A') (A") (A') (A') (A") (A') (A') (A")
                 (A') (A') (A") (A") (A') (A') (A') (A') (A') (A')
                 (A") (A') (A') (A') (A") (A") (A') (A') (A') (A")
                 (A') (A') (A') (A") (A') (A') (A') (A") (A') (A')
                 (A") (A") (A') (A') (A") (A') (A') (A") (A") (A')
                 (A") (A') (A') (A") (A') (A') (A") (A') (A") (A')
                 (A") (A') (A') (A") (A') (A') (A") (A') (A') (A')
                 (A') (A") (A') (A') (A') (A') (A') (A') (A") (A')
                 (A") (A') (A") (A') (A") (A") (A") (A') (A") (A')
                 (A') (A') (A') (A') (A')
 The electronic state of the initial guess is 1-A'.
 Keep R1 ints in memory in symmetry-blocked form, NReq=127531751.
 Requested convergence on RMS density matrix=1.00D-08 within 128 cycles.
 Requested convergence on MAX density matrix=1.00D-06.
 Requested convergence on             energy=1.00D-06.
 No special actions if energy rises.
 SCF Done:  E(RwB97XD) =  -2915.90332813     A.U. after   14 cycles
            NFock= 14  Conv=0.35D-08     -V/T= 2.0019
 DoSCS=F DFT=T ScalE2(SS,OS)=  1.000000  1.000000
 Range of M.O.s used for correlation:     1   135
 NBasis=   135 NAE=    40 NBE=    40 NFC=     0 NFV=     0
 NROrb=    135 NOA=    40 NOB=    40 NVA=    95 NVB=    95
 Symmetrizing basis deriv contribution to polar:
 IMax=3 JMax=2 DiffMx= 0.00D+00
 G2DrvN: will do    11 centers at a time, making    1 passes.
 Calling FoFCou, ICntrl=  3107 FMM=F I1Cent=   0 AccDes= 0.00D+00.
 End of G2Drv F.D. properties file   721 does not exist.
 End of G2Drv F.D. properties file   722 does not exist.
 End of G2Drv F.D. properties file   788 does not exist.
          IDoAtm=1111111111
          Differentiating once with respect to electric field.
                with respect to dipole field.
          Differentiating once with respect to nuclear coordinates.
 Keep R1 ints in memory in symmetry-blocked form, NReq=127537686.
          There are    30 degrees of freedom in the 1st order CPHF.  IDoFFX=4 NUNeed=    30.
     30 vectors produced by pass  0 Test12= 1.27D-14 3.33D-09 XBig12= 2.99D+01 2.85D+00.
 AX will form    30 AO Fock derivatives at one time.
     30 vectors produced by pass  1 Test12= 1.27D-14 3.33D-09 XBig12= 5.09D+00 5.32D-01.
     30 vectors produced by pass  2 Test12= 1.27D-14 3.33D-09 XBig12= 1.58D-01 7.51D-02.
     30 vectors produced by pass  3 Test12= 1.27D-14 3.33D-09 XBig12= 3.08D-03 9.97D-03.
     30 vectors produced by pass  4 Test12= 1.27D-14 3.33D-09 XBig12= 3.70D-05 1.14D-03.
     30 vectors produced by pass  5 Test12= 1.27D-14 3.33D-09 XBig12= 3.94D-07 1.05D-04.
     27 vectors produced by pass  6 Test12= 1.27D-14 3.33D-09 XBig12= 2.16D-09 7.09D-06.
     11 vectors produced by pass  7 Test12= 1.27D-14 3.33D-09 XBig12= 9.47D-12 4.43D-07.
      3 vectors produced by pass  8 Test12= 1.27D-14 3.33D-09 XBig12= 4.22D-14 2.92D-08.
 InvSVY:  IOpt=1 It=  1 EMax= 5.33D-15
 Solved reduced A of dimension   221 with    30 vectors.
 Isotropic polarizability for W=    0.000000       57.88 Bohr**3.
 End of Minotr F.D. properties file   721 does not exist.
 End of Minotr F.D. properties file   722 does not exist.
 End of Minotr F.D. properties file   788 does not exist.

 **********************************************************************

            Population analysis using the SCF density.

 **********************************************************************

 Orbital symmetries:
       Occupied  (A') (A') (A') (A") (A') (A') (A') (A') (A') (A')
                 (A') (A') (A') (A") (A') (A') (A") (A') (A") (A')
                 (A') (A') (A') (A') (A') (A') (A') (A') (A") (A')
                 (A') (A") (A') (A") (A') (A') (A") (A') (A") (A')
       Virtual   (A") (A') (A') (A") (A") (A') (A') (A') (A") (A')
                 (A') (A') (A') (A") (A") (A') (A') (A') (A') (A')
                 (A") (A') (A') (A') (A") (A") (A') (A') (A') (A")
                 (A') (A') (A') (A") (A') (A') (A') (A") (A') (A')
                 (A") (A") (A') (A') (A") (A') (A') (A") (A") (A')
                 (A") (A') (A') (A") (A') (A") (A') (A') (A") (A')
                 (A") (A') (A') (A") (A') (A') (A") (A') (A') (A')
                 (A') (A') (A") (A') (A') (A') (A') (A') (A") (A')
                 (A") (A") (A') (A') (A") (A") (A") (A') (A") (A')
                 (A') (A') (A') (A') (A')
 The electronic state is 1-A'.
 Alpha  occ. eigenvalues -- -483.17068 -62.72258 -56.51487 -56.51117 -56.51114
 Alpha  occ. eigenvalues --  -19.33928 -19.32601 -19.28679 -10.46107 -10.44548
 Alpha  occ. eigenvalues --  -10.38869  -8.84967  -6.67243  -6.65843  -6.65831
 Alpha  occ. eigenvalues --   -2.77197  -2.76795  -2.76787  -2.75658  -2.75657
 Alpha  occ. eigenvalues --   -1.25014  -1.20712  -1.16009  -0.94852  -0.85116
 Alpha  occ. eigenvalues --   -0.76333  -0.71740  -0.64665  -0.60539  -0.59081
 Alpha  occ. eigenvalues --   -0.55851  -0.55634  -0.52721  -0.50075  -0.48305
 Alpha  occ. eigenvalues --   -0.44652  -0.43241  -0.38550  -0.38105  -0.36713
 Alpha virt. eigenvalues --   -0.02911   0.04515   0.09893   0.10878   0.12383
 Alpha virt. eigenvalues --    0.12474   0.13141   0.15795   0.20507   0.20607
 Alpha virt. eigenvalues --    0.25036   0.31311   0.31652   0.32871   0.33368
 Alpha virt. eigenvalues --    0.35909   0.38108   0.39745   0.47282   0.50033
 Alpha virt. eigenvalues --    0.52801   0.54592   0.57241   0.60227   0.62374
 Alpha virt. eigenvalues --    0.65985   0.66525   0.68059   0.69780   0.71294
 Alpha virt. eigenvalues --    0.73305   0.74795   0.75166   0.78754   0.82155
 Alpha virt. eigenvalues --    0.86808   0.90197   0.98330   0.99795   1.01078
 Alpha virt. eigenvalues --    1.02023   1.05142   1.05710   1.05863   1.06879
 Alpha virt. eigenvalues --    1.07572   1.09064   1.09363   1.10344   1.14164
 Alpha virt. eigenvalues --    1.17088   1.20297   1.22625   1.26062   1.29078
 Alpha virt. eigenvalues --    1.40127   1.42281   1.45714   1.46091   1.57869
 Alpha virt. eigenvalues --    1.58757   1.66765   1.69827   1.70140   1.70966
 Alpha virt. eigenvalues --    1.73837   1.83316   1.83710   1.92917   1.96297
 Alpha virt. eigenvalues --    2.02077   2.02969   2.04089   2.15406   2.17488
 Alpha virt. eigenvalues --    2.24303   2.27721   2.46230   2.49586   2.54436
 Alpha virt. eigenvalues --    2.66930   2.73157   2.75247   2.77720   2.86846
 Alpha virt. eigenvalues --    2.97968   3.10654   3.14788   3.23802   3.28557
 Alpha virt. eigenvalues --    3.43120   3.44318   3.54557   3.59551   3.78182
          Condensed to atoms (all electrons):
               1          2          3          4          5          6
     1  C    5.078189  -0.069660  -0.083620   0.227768   0.026464   0.005204
     2  C   -0.069660   4.501482  -0.056512   0.219695   0.762694   0.462222
     3  O   -0.083620  -0.056512   7.572424   0.683709   0.001336  -0.005537
     4  C    0.227768   0.219695   0.683709   5.075408  -0.098546  -0.088260
     5  O    0.026464   0.762694   0.001336  -0.098546   7.557028  -0.048308
     6  O    0.005204   0.462222  -0.005537  -0.088260  -0.048308   7.458855
     7  H    0.384255  -0.001487   0.000310  -0.015383   0.003946   0.000131
     8  Br   0.203856   0.009522   0.030876  -0.056880  -0.001992  -0.000928
     9  H    0.384255  -0.001487   0.000310  -0.015383   0.003946   0.000131
    10  H    0.003476  -0.039134   0.037319  -0.014123   0.003240   0.349651
               7          8          9         10
     1  C    0.384255   0.203856   0.384255   0.003476
     2  C   -0.001487   0.009522  -0.001487  -0.039134
     3  O    0.000310   0.030876   0.000310   0.037319
     4  C   -0.015383  -0.056880  -0.015383  -0.014123
     5  O    0.003946  -0.001992   0.003946   0.003240
     6  O    0.000131  -0.000928   0.000131   0.349651
     7  H    0.544759  -0.027694  -0.019562  -0.000103
     8  Br  -0.027694  34.920357  -0.027694  -0.000688
     9  H   -0.019562  -0.027694   0.544759  -0.000103
    10  H   -0.000103  -0.000688  -0.000103   0.484267
 Mulliken charges:
               1
     1  C   -0.160189
     2  C    0.212664
     3  O   -0.180616
     4  C    0.081994
     5  O   -0.209808
     6  O   -0.133160
     7  H    0.130827
     8  Br  -0.048736
     9  H    0.130827
    10  H    0.176198
 Sum of Mulliken charges =  -0.00000
 Mulliken charges with hydrogens summed into heavy atoms:
               1
     1  C    0.101464
     2  C    0.212664
     3  O   -0.180616
     4  C    0.081994
     5  O   -0.209808
     6  O    0.043038
     8  Br  -0.048736
 APT charges:
               1
     1  C    0.075368
     2  C    0.993955
     3  O   -0.596048
     4  C    0.617190
     5  O   -0.671549
     6  O   -0.726718
     7  H    0.044064
     8  Br  -0.163586
     9  H    0.044064
    10  H    0.383261
 Sum of APT charges =  -0.00000
 APT charges with hydrogens summed into heavy atoms:
               1
     1  C    0.163497
     2  C    0.993955
     3  O   -0.596048
     4  C    0.617190
     5  O   -0.671549
     6  O   -0.343457
     8  Br  -0.163586
 Electronic spatial extent (au):  <R**2>=           1451.6849
 Charge=             -0.0000 electrons
 Dipole moment (field-independent basis, Debye):
    X=              0.3823    Y=             -0.2729    Z=              0.0000  Tot=              0.4697
 Quadrupole moment (field-independent basis, Debye-Ang):
   XX=            -63.1661   YY=            -50.3611   ZZ=            -49.7677
   XY=              3.2622   XZ=             -0.0000   YZ=              0.0000
 Traceless Quadrupole moment (field-independent basis, Debye-Ang):
   XX=             -8.7345   YY=              4.0706   ZZ=              4.6639
   XY=              3.2622   XZ=             -0.0000   YZ=              0.0000
 Octapole moment (field-independent basis, Debye-Ang**2):
  XXX=             85.7497  YYY=              0.9364  ZZZ=              0.0000  XYY=              5.3262
  XXY=             -4.1897  XXZ=              0.0000  XZZ=              8.1555  YZZ=              3.3567
  YYZ=              0.0000  XYZ=             -0.0000
 Hexadecapole moment (field-independent basis, Debye-Ang**3):
 XXXX=          -1263.5495 YYYY=           -313.3018 ZZZZ=            -54.9752 XXXY=           -146.7213
 XXXZ=             -0.0000 YYYX=           -128.0539 YYYZ=              0.0000 ZZZX=             -0.0000
 ZZZY=              0.0000 XXYY=           -257.5619 XXZZ=           -200.2529 YYZZ=            -63.5803
 XXYZ=              0.0000 YYXZ=             -0.0000 ZZXY=            -50.4459
 N-N= 4.686832767196D+02 E-N=-7.890617583026D+03  KE= 2.910402216906D+03
 Symmetry A'   KE= 2.520941296701D+03
 Symmetry A"   KE= 3.894609202052D+02
  Exact polarizability:  72.702   2.399  61.504   0.000  -0.000  39.424
 Approx polarizability:  74.992  -6.771  78.209   0.000   0.000  47.307
 Calling FoFJK, ICntrl=    100127 FMM=F ISym2X=1 I1Cent= 0 IOpClX= 0 NMat=1 NMatS=1 NMatT=0.
 Full mass-weighted force constant matrix:
 Low frequencies ---   -2.9710   -0.0123   -0.0088   -0.0085    5.1156    6.6613
 Low frequencies ---   57.6489  101.7313  144.6900
 Diagonal vibrational polarizability:
       19.9091044      15.8714753      67.5013948
 Harmonic frequencies (cm**-1), IR intensities (KM/Mole), Raman scattering
 activities (A**4/AMU), depolarization ratios for plane and unpolarized
 incident light, reduced masses (AMU), force constants (mDyne/A),
 and normal coordinates:
                      1                      2                      3
                     A"                     A"                     A'
 Frequencies --     57.6332               101.7205               144.6866
 Red. masses --      4.2087                 5.3510                 9.4338
 Frc consts  --      0.0082                 0.0326                 0.1164
 IR Inten    --      4.4113                 9.2055                 5.5993
  Atom  AN      X      Y      Z        X      Y      Z        X      Y      Z
     1   6    -0.00   0.00   0.33     0.00  -0.00   0.24     0.00   0.29  -0.00
     2   6    -0.00  -0.00  -0.04    -0.00   0.00  -0.02    -0.03   0.03  -0.00
     3   8     0.00   0.00   0.20    -0.00   0.00  -0.26     0.10   0.36  -0.00
     4   6     0.00   0.00   0.17    -0.00   0.00  -0.05    -0.02   0.31  -0.00
     5   8    -0.00  -0.00  -0.07    -0.00  -0.00  -0.28    -0.28  -0.11   0.00
     6   8    -0.00  -0.00  -0.19     0.00  -0.00   0.31     0.29  -0.12   0.00
     7   1     0.18  -0.22   0.54     0.11  -0.27   0.46     0.09   0.32   0.01
     8  35    -0.00  -0.00  -0.07     0.00  -0.00   0.00    -0.02  -0.13   0.00
     9   1    -0.18   0.22   0.54    -0.11   0.27   0.46     0.09   0.32  -0.01
    10   1    -0.00  -0.00  -0.12     0.00   0.00   0.30     0.49   0.10  -0.00
                      4                      5                      6
                     A'                     A'                     A"
 Frequencies --    213.5982               350.0600               383.4089
 Red. masses --     20.0852                 6.4248                 3.7389
 Frc consts  --      0.5399                 0.4639                 0.3238
 IR Inten    --      9.8259                34.6598                 9.8514
  Atom  AN      X      Y      Z        X      Y      Z        X      Y      Z
     1   6     0.12  -0.10   0.00     0.04  -0.11   0.00    -0.00   0.00   0.02
     2   6    -0.34  -0.01   0.00     0.09   0.13   0.00    -0.00  -0.00   0.23
     3   8    -0.45  -0.08   0.00    -0.32  -0.17  -0.00     0.00   0.00  -0.17
     4   6    -0.22   0.03   0.00    -0.00  -0.01   0.00     0.00   0.00   0.36
     5   8    -0.61  -0.17   0.00     0.03   0.10  -0.00    -0.00  -0.00  -0.12
     6   8    -0.10  -0.14  -0.00     0.42   0.01  -0.00    -0.00  -0.00  -0.09
     7   1     0.19  -0.05  -0.00    -0.03  -0.12  -0.01    -0.04   0.52  -0.34
     8  35     0.30   0.09  -0.00    -0.05   0.01  -0.00     0.00  -0.00  -0.01
     9   1     0.19  -0.05   0.00    -0.03  -0.12   0.01     0.04  -0.52  -0.34
    10   1     0.06   0.03   0.00     0.72   0.31   0.00    -0.00  -0.00  -0.02
                      7                      8                      9
                     A'                     A'                     A"
 Frequencies --    519.7559               669.4207               671.3438
 Red. masses --     10.9776                 6.6120                 2.0774
 Frc consts  --      1.7473                 1.7457                 0.5516
 IR Inten    --      4.8875                39.7278                58.3805
  Atom  AN      X      Y      Z        X      Y      Z        X      Y      Z
     1   6    -0.14   0.29  -0.00    -0.31  -0.21   0.00    -0.00  -0.00  -0.13
     2   6     0.03  -0.26  -0.00    -0.27   0.04  -0.00    -0.00   0.00   0.25
     3   8    -0.38   0.13  -0.00     0.19   0.11  -0.00     0.00   0.00   0.01
     4   6    -0.24   0.18   0.00    -0.23  -0.09   0.00    -0.00  -0.00  -0.06
     5   8     0.47  -0.04  -0.00     0.06   0.27   0.00     0.00   0.00  -0.05
     6   8    -0.07  -0.27  -0.00     0.10  -0.16   0.00     0.00  -0.00  -0.10
     7   1     0.02   0.33   0.02    -0.28  -0.20   0.00     0.14  -0.43   0.21
     8  35     0.05  -0.00  -0.00     0.05  -0.00  -0.00     0.00  -0.00   0.01
     9   1     0.02   0.33  -0.02    -0.28  -0.20  -0.00    -0.14   0.43   0.21
    10   1    -0.02  -0.23   0.00     0.51   0.25  -0.00     0.00   0.00   0.64
                     10                     11                     12
                     A"                     A'                     A'
 Frequencies --    724.8351               745.0505               827.3216
 Red. masses --      1.2227                 5.5628                 7.5631
 Frc consts  --      0.3785                 1.8193                 3.0500
 IR Inten    --     46.9174                 8.8354                 8.1200
  Atom  AN      X      Y      Z        X      Y      Z        X      Y      Z
     1   6     0.00  -0.00   0.06     0.46  -0.25  -0.00     0.12   0.42  -0.00
     2   6    -0.00   0.00  -0.10    -0.13  -0.03   0.00    -0.26   0.04  -0.00
     3   8     0.00   0.00  -0.02     0.00   0.15   0.00     0.06  -0.28  -0.00
     4   6    -0.00   0.00   0.00    -0.05   0.09  -0.00     0.22  -0.13   0.00
     5   8     0.00   0.00   0.05     0.07   0.09  -0.00    -0.03   0.23   0.00
     6   8     0.00  -0.00  -0.03    -0.06  -0.17   0.00    -0.05  -0.23  -0.00
     7   1    -0.08   0.18  -0.09     0.54  -0.13  -0.05     0.15   0.38   0.04
     8  35    -0.00   0.00  -0.00    -0.06   0.02  -0.00    -0.01  -0.01   0.00
     9   1     0.08  -0.18  -0.09     0.54  -0.13   0.05     0.15   0.38  -0.04
    10   1     0.00   0.00   0.94     0.11  -0.00  -0.00     0.33   0.15   0.00
                     13                     14                     15
                     A"                     A'                     A"
 Frequencies --    896.8487              1078.0554              1148.2650
 Red. masses --      2.5513                 2.4640                 1.1498
 Frc consts  --      1.2091                 1.6872                 0.8932
 IR Inten    --      2.9326                88.9161                 0.7270
  Atom  AN      X      Y      Z        X      Y      Z        X      Y      Z
     1   6     0.00  -0.00  -0.19    -0.02  -0.06  -0.00    -0.00   0.00   0.03
     2   6    -0.00   0.00  -0.19     0.03   0.04   0.00     0.00   0.00   0.04
     3   8     0.00   0.00  -0.05    -0.07   0.04   0.00     0.00  -0.00   0.02
     4   6    -0.00  -0.00   0.24     0.26   0.15   0.00    -0.00  -0.00  -0.10
     5   8    -0.00   0.00   0.05    -0.01   0.05   0.00    -0.00   0.00  -0.01
     6   8     0.00  -0.00   0.03    -0.07  -0.12  -0.00     0.00  -0.00  -0.01
     7   1     0.56  -0.28   0.19    -0.58  -0.32  -0.02     0.60   0.36  -0.01
     8  35    -0.00   0.00   0.01     0.01  -0.00   0.00     0.00  -0.00   0.00
     9   1    -0.56   0.28   0.19    -0.58  -0.32   0.02    -0.60  -0.36  -0.01
    10   1    -0.00  -0.00   0.09    -0.04  -0.09  -0.00    -0.00  -0.00  -0.00
                     16                     17                     18
                     A'                     A'                     A'
 Frequencies --   1228.7026              1305.2278              1404.7591
 Red. masses --      1.8041                 1.7562                 1.1365
 Frc consts  --      1.6048                 1.7628                 1.3213
 IR Inten    --     17.3457                71.5570               115.5866
  Atom  AN      X      Y      Z        X      Y      Z        X      Y      Z
     1   6     0.07   0.03  -0.00    -0.17  -0.08  -0.00    -0.00  -0.08  -0.00
     2   6    -0.14  -0.11  -0.00    -0.01  -0.00  -0.00     0.04   0.03  -0.00
     3   8     0.01   0.00   0.00    -0.02  -0.00   0.00     0.00  -0.01  -0.00
     4   6     0.02   0.02   0.00     0.15   0.07   0.00     0.01   0.01   0.00
     5   8     0.06  -0.09   0.00     0.01  -0.03   0.00    -0.01  -0.00   0.00
     6   8    -0.03   0.11   0.00    -0.05  -0.01  -0.00    -0.03  -0.02  -0.00
     7   1    -0.29  -0.10  -0.04     0.58   0.06   0.14    -0.13   0.53  -0.43
     8  35     0.00  -0.00   0.00    -0.00   0.00   0.00     0.00  -0.00  -0.00
     9   1    -0.29  -0.10   0.04     0.58   0.06  -0.14    -0.13   0.53   0.43
    10   1     0.54   0.67   0.00     0.31   0.35   0.00     0.12   0.13  -0.00
                     19                     20                     21
                     A'                     A'                     A'
 Frequencies --   1436.0703              1859.9506              1910.1140
 Red. masses --      2.8700                12.4653                10.9542
 Frc consts  --      3.4872                25.4072                23.5477
 IR Inten    --    287.7531               103.9148               222.2431
  Atom  AN      X      Y      Z        X      Y      Z        X      Y      Z
     1   6     0.04   0.06  -0.00    -0.01  -0.05  -0.00    -0.01   0.00  -0.00
     2   6     0.26   0.17   0.00     0.02  -0.02   0.00    -0.35   0.69  -0.00
     3   8     0.02   0.00  -0.00     0.23  -0.48  -0.00     0.01  -0.02  -0.00
     4   6    -0.14  -0.07   0.00    -0.31   0.74   0.00     0.01  -0.01  -0.00
     5   8    -0.03  -0.02  -0.00     0.01  -0.00  -0.00     0.24  -0.40   0.00
     6   8    -0.14  -0.12  -0.00    -0.01  -0.01  -0.00     0.03  -0.07   0.00
     7   1    -0.05  -0.22   0.16    -0.02  -0.13   0.06    -0.02   0.01   0.00
     8  35     0.00   0.00   0.00     0.00   0.00   0.00    -0.00  -0.00   0.00
     9   1    -0.05  -0.22  -0.16    -0.02  -0.13  -0.06    -0.02   0.01  -0.00
    10   1     0.57   0.61   0.00    -0.07  -0.11   0.00    -0.30  -0.30   0.00
                     22                     23                     24
                     A'                     A"                     A'
 Frequencies --   3108.6130              3167.2712              3682.7867
 Red. masses --      1.0607                 1.1042                 1.0647
 Frc consts  --      6.0390                 6.5263                 8.5077
 IR Inten    --     12.4752                 5.0996               122.5030
  Atom  AN      X      Y      Z        X      Y      Z        X      Y      Z
     1   6     0.03  -0.06  -0.00    -0.00   0.00  -0.09     0.00  -0.00   0.00
     2   6     0.00  -0.00  -0.00     0.00   0.00  -0.00     0.00  -0.01  -0.00
     3   8    -0.00   0.00  -0.00     0.00  -0.00  -0.00     0.00  -0.00   0.00
     4   6     0.00  -0.00  -0.00    -0.00   0.00  -0.00    -0.00   0.00   0.00
     5   8     0.00   0.00   0.00    -0.00  -0.00   0.00    -0.00   0.00   0.00
     6   8    -0.00   0.00  -0.00     0.00  -0.00   0.00     0.04  -0.04   0.00
     7   1    -0.18   0.36   0.58    -0.19   0.38   0.56    -0.00  -0.00  -0.00
     8  35    -0.00   0.00   0.00    -0.00   0.00   0.00     0.00   0.00  -0.00
     9   1    -0.18   0.36  -0.58     0.19  -0.38   0.56    -0.00  -0.00   0.00
    10   1    -0.00   0.00   0.00    -0.00   0.00  -0.00    -0.70   0.71  -0.00

 -------------------
 - Thermochemistry -
 -------------------
 Temperature   298.150 Kelvin.  Pressure   1.00000 Atm.
 Atom     1 has atomic number  6 and mass  12.00000
 Atom     2 has atomic number  6 and mass  12.00000
 Atom     3 has atomic number  8 and mass  15.99491
 Atom     4 has atomic number  6 and mass  12.00000
 Atom     5 has atomic number  8 and mass  15.99491
 Atom     6 has atomic number  8 and mass  15.99491
 Atom     7 has atomic number  1 and mass   1.00783
 Atom     8 has atomic number 35 and mass  78.91834
 Atom     9 has atomic number  1 and mass   1.00783
 Atom    10 has atomic number  1 and mass   1.00783
 Molecular mass:   165.92656 amu.
 Principal axes and moments of inertia in atomic units:
                           1         2         3
     Eigenvalues --   332.584572400.733542722.10513
           X            0.95133  -0.30818   0.00000
           Y            0.30818   0.95133   0.00000
           Z            0.00000  -0.00000   1.00000
 This molecule is an asymmetric top.
 Rotational symmetry number  1.
 Rotational temperatures (Kelvin)      0.26043     0.03608     0.03182
 Rotational constants (GHZ):           5.42641     0.75175     0.66299
 Zero-point vibrational energy     165297.0 (Joules/Mol)
                                   39.50693 (Kcal/Mol)
 Warning -- explicit consideration of   7 degrees of freedom as
           vibrations may cause significant error
 Vibrational temperatures:     82.92   146.35   208.17   307.32   503.66
          (Kelvin)            551.64   747.81   963.15   965.91  1042.88
                             1071.96  1190.33  1290.37  1551.08  1652.10
                             1767.83  1877.93  2021.14  2066.18  2676.05
                             2748.23  4472.60  4557.00  5298.71
 
 Zero-point correction=                           0.062958 (Hartree/Particle)
 Thermal correction to Energy=                    0.070094
 Thermal correction to Enthalpy=                  0.071039
 Thermal correction to Gibbs Free Energy=         0.029381
 Sum of electronic and zero-point Energies=          -2915.840370
 Sum of electronic and thermal Energies=             -2915.833234
 Sum of electronic and thermal Enthalpies=           -2915.832289
 Sum of electronic and thermal Free Energies=        -2915.873947
 
                     E (Thermal)             CV                S
                      KCal/Mol        Cal/Mol-Kelvin    Cal/Mol-Kelvin
 Total                   43.985             23.420             87.675
 Electronic               0.000              0.000              0.000
 Translational            0.889              2.981             41.227
 Rotational               0.889              2.981             29.165
 Vibrational             42.207             17.459             17.283
 Vibration     1          0.596              1.974              4.537
 Vibration     2          0.604              1.948              3.421
 Vibration     3          0.616              1.908              2.741
 Vibration     4          0.644              1.820              2.013
 Vibration     5          0.727              1.575              1.166
 Vibration     6          0.753              1.506              1.026
 Vibration     7          0.875              1.206              0.611
                       Q            Log10(Q)             Ln(Q)
 Total Bot       0.305857D-13        -13.514481        -31.118242
 Total V=0       0.278164D+16         15.444301         35.561818
 Vib (Bot)       0.689875D-27        -27.161230        -62.541043
 Vib (Bot)    1  0.358402D+01          0.554370          1.276484
 Vib (Bot)    2  0.201689D+01          0.304681          0.701555
 Vib (Bot)    3  0.140355D+01          0.147227          0.339003
 Vib (Bot)    4  0.928507D+00         -0.032215         -0.074177
 Vib (Bot)    5  0.527030D+00         -0.278165         -0.640498
 Vib (Bot)    6  0.470446D+00         -0.327490         -0.754074
 Vib (Bot)    7  0.310626D+00         -0.507762         -1.169166
 Vib (V=0)       0.627411D+02          1.797552          4.139018
 Vib (V=0)    1  0.411873D+01          0.614763          1.415544
 Vib (V=0)    2  0.257794D+01          0.411273          0.946990
 Vib (V=0)    3  0.198995D+01          0.298842          0.688108
 Vib (V=0)    4  0.155457D+01          0.191611          0.441201
 Vib (V=0)    5  0.122647D+01          0.088657          0.204141
 Vib (V=0)    6  0.118653D+01          0.074278          0.171031
 Vib (V=0)    7  0.108863D+01          0.036881          0.084923
 Electronic      0.100000D+01          0.000000          0.000000
 Translational   0.840094D+08          7.924328         18.246439
 Rotational      0.527741D+06          5.722421         13.176361

     ==================================================
      Anharmonic Data: Displacement Vectors Definition
     ==================================================

 Framework definition based on atomic masses: CS  
 ***** Axes restored to original set *****
 -------------------------------------------------------------------
 Center     Atomic                   Forces (Hartrees/Bohr)
 Number     Number              X              Y              Z
 -------------------------------------------------------------------
      1        6           0.000010151    0.000014257    0.000000000
      2        6          -0.000012149   -0.000008920   -0.000000000
      3        8           0.000047003    0.000001126   -0.000000000
      4        6           0.000014365   -0.000019666   -0.000000000
      5        8           0.000014705    0.000021749    0.000000000
      6        8           0.000032494   -0.000001042   -0.000000000
      7        1          -0.000010162   -0.000005381   -0.000005281
      8       35          -0.000007693    0.000000610   -0.000000000
      9        1          -0.000010162   -0.000005381    0.000005281
     10        1          -0.000078552    0.000002647    0.000000000
 -------------------------------------------------------------------
 Cartesian Forces:  Max     0.000078552 RMS     0.000019698
 NDeriv=     24 NFrqRd=  0 NDerD0=      0 MskFDP=       0 MskDFD=       0 MskDF0=       0
 At 1st pt F.D. properties file   721 does not exist.
 At 1st pt F.D. properties file   722 does not exist.
 D2Numr ... symmetry will not be used.
 Basis read from rwf:  (5D, 7F)
   135 basis functions,   376 primitive gaussians,   144 cartesian basis functions
    40 alpha electrons       40 beta electrons
       nuclear repulsion energy       468.6864760092 Hartrees.
 NAtoms=   10 NActive=   10 NUniq=   10 SFac= 1.00D+00 NAtFMM=   60 NAOKFM=F Big=F
 Integral buffers will be    131072 words long.
 Raffenetti 2 integral format.
 Two-electron integral symmetry is turned off.
 Nuclear repulsion after empirical dispersion term =      468.6831875187 Hartrees.
 One-electron integrals computed using PRISM.
 NBasis=   135 RedAO= T EigKep=  2.36D-03  NBF=   135
 NBsUse=   135 1.00D-06 EigRej= -1.00D+00 NBFU=   135
 Initial guess from the checkpoint file:  ""neutro.chk""
 B after Tr=    -0.000000   -0.000000   -0.000091
         Rot=    1.000000    0.000051    0.000011   -0.000000 Ang=   0.01 deg.
 Keep R1 ints in memory in canonical form, NReq=92050076.
 Requested convergence on RMS density matrix=1.00D-08 within 128 cycles.
 Requested convergence on MAX density matrix=1.00D-06.
 Requested convergence on             energy=1.00D-06.
 No special actions if energy rises.
 SCF Done:  E(RwB97XD) =  -2915.90332810     A.U. after    8 cycles
            NFock=  8  Conv=0.76D-08     -V/T= 2.0019
 DoSCS=F DFT=T ScalE2(SS,OS)=  1.000000  1.000000
 Range of M.O.s used for correlation:     1   135
 NBasis=   135 NAE=    40 NBE=    40 NFC=     0 NFV=     0
 NROrb=    135 NOA=    40 NOB=    40 NVA=    95 NVB=    95
 Symmetrizing basis deriv contribution to polar:
 IMax=3 JMax=2 DiffMx= 0.00D+00
 G2DrvN: will do    11 centers at a time, making    1 passes.
 Calling FoFCou, ICntrl=  3107 FMM=F I1Cent=   0 AccDes= 0.00D+00.
 End of G2Drv F.D. properties file   721 does not exist.
 End of G2Drv F.D. properties file   722 does not exist.
 End of G2Drv F.D. properties file   788 does not exist.
          IDoAtm=1111111111
          Differentiating once with respect to electric field.
                with respect to dipole field.
          Differentiating once with respect to nuclear coordinates.
 Keep R1 ints in memory in canonical form, NReq=92041695.
          There are    33 degrees of freedom in the 1st order CPHF.  IDoFFX=6 NUNeed=     3.
     30 vectors produced by pass  0 Test12= 1.15D-14 3.03D-09 XBig12= 2.99D+01 2.85D+00.
 AX will form    30 AO Fock derivatives at one time.
     30 vectors produced by pass  1 Test12= 1.15D-14 3.03D-09 XBig12= 5.09D+00 5.32D-01.
     30 vectors produced by pass  2 Test12= 1.15D-14 3.03D-09 XBig12= 1.58D-01 7.51D-02.
     30 vectors produced by pass  3 Test12= 1.15D-14 3.03D-09 XBig12= 3.08D-03 9.97D-03.
     30 vectors produced by pass  4 Test12= 1.15D-14 3.03D-09 XBig12= 3.70D-05 1.14D-03.
     30 vectors produced by pass  5 Test12= 1.15D-14 3.03D-09 XBig12= 3.94D-07 1.05D-04.
     28 vectors produced by pass  6 Test12= 1.15D-14 3.03D-09 XBig12= 2.16D-09 7.09D-06.
     12 vectors produced by pass  7 Test12= 1.15D-14 3.03D-09 XBig12= 9.47D-12 4.43D-07.
      3 vectors produced by pass  8 Test12= 1.15D-14 3.03D-09 XBig12= 4.22D-14 2.92D-08.
 InvSVY:  IOpt=1 It=  1 EMax= 1.78D-15
 Solved reduced A of dimension   223 with    33 vectors.
 Isotropic polarizability for W=    0.000000       57.88 Bohr**3.
 End of Minotr F.D. properties file   721 does not exist.
 End of Minotr F.D. properties file   722 does not exist.
 End of Minotr F.D. properties file   788 does not exist.

 **********************************************************************

            Population analysis using the SCF density.

 **********************************************************************

 Alpha  occ. eigenvalues -- -483.17068 -62.72258 -56.51487 -56.51117 -56.51114
 Alpha  occ. eigenvalues --  -19.33928 -19.32601 -19.28679 -10.46107 -10.44548
 Alpha  occ. eigenvalues --  -10.38869  -8.84967  -6.67243  -6.65843  -6.65831
 Alpha  occ. eigenvalues --   -2.77197  -2.76795  -2.76787  -2.75658  -2.75657
 Alpha  occ. eigenvalues --   -1.25014  -1.20712  -1.16009  -0.94852  -0.85116
 Alpha  occ. eigenvalues --   -0.76333  -0.71740  -0.64664  -0.60539  -0.59081
 Alpha  occ. eigenvalues --   -0.55851  -0.55634  -0.52721  -0.50075  -0.48305
 Alpha  occ. eigenvalues --   -0.44652  -0.43241  -0.38550  -0.38105  -0.36713
 Alpha virt. eigenvalues --   -0.02911   0.04515   0.09893   0.10878   0.12383
 Alpha virt. eigenvalues --    0.12474   0.13141   0.15795   0.20507   0.20607
 Alpha virt. eigenvalues --    0.25036   0.31311   0.31652   0.32871   0.33368
 Alpha virt. eigenvalues --    0.35909   0.38108   0.39745   0.47282   0.50033
 Alpha virt. eigenvalues --    0.52801   0.54592   0.57241   0.60227   0.62374
 Alpha virt. eigenvalues --    0.65985   0.66525   0.68059   0.69780   0.71294
 Alpha virt. eigenvalues --    0.73305   0.74795   0.75166   0.78754   0.82155
 Alpha virt. eigenvalues --    0.86808   0.90197   0.98330   0.99795   1.01078
 Alpha virt. eigenvalues --    1.02023   1.05142   1.05710   1.05863   1.06879
 Alpha virt. eigenvalues --    1.07572   1.09063   1.09363   1.10344   1.14164
 Alpha virt. eigenvalues --    1.17088   1.20297   1.22625   1.26062   1.29078
 Alpha virt. eigenvalues --    1.40127   1.42281   1.45713   1.46091   1.57869
 Alpha virt. eigenvalues --    1.58757   1.66765   1.69827   1.70140   1.70966
 Alpha virt. eigenvalues --    1.73836   1.83316   1.83711   1.92917   1.96297
 Alpha virt. eigenvalues --    2.02077   2.02969   2.04089   2.15406   2.17488
 Alpha virt. eigenvalues --    2.24303   2.27721   2.46230   2.49586   2.54436
 Alpha virt. eigenvalues --    2.66930   2.73157   2.75246   2.77720   2.86846
 Alpha virt. eigenvalues --    2.97968   3.10654   3.14788   3.23801   3.28557
 Alpha virt. eigenvalues --    3.43120   3.44318   3.54557   3.59551   3.78182
          Condensed to atoms (all electrons):
               1          2          3          4          5          6
     1  C    5.078191  -0.069660  -0.083619   0.227768   0.026464   0.005204
     2  C   -0.069660   4.501483  -0.056512   0.219695   0.762693   0.462222
     3  O   -0.083619  -0.056512   7.572424   0.683709   0.001336  -0.005537
     4  C    0.227768   0.219695   0.683709   5.075408  -0.098546  -0.088260
     5  O    0.026464   0.762693   0.001336  -0.098546   7.557028  -0.048308
     6  O    0.005204   0.462222  -0.005537  -0.088260  -0.048308   7.458855
     7  H    0.384308  -0.001489   0.000317  -0.015422   0.003977   0.000132
     8  Br   0.203856   0.009522   0.030876  -0.056880  -0.001992  -0.000928
     9  H    0.384202  -0.001484   0.000302  -0.015343   0.003916   0.000130
    10  H    0.003476  -0.039134   0.037319  -0.014123   0.003240   0.349651
               7          8          9         10
     1  C    0.384308   0.203856   0.384202   0.003476
     2  C   -0.001489   0.009522  -0.001484  -0.039134
     3  O    0.000317   0.030876   0.000302   0.037319
     4  C   -0.015422  -0.056880  -0.015343  -0.014123
     5  O    0.003977  -0.001992   0.003916   0.003240
     6  O    0.000132  -0.000928   0.000130   0.349651
     7  H    0.544771  -0.027728  -0.019562  -0.000103
     8  Br  -0.027728  34.920357  -0.027659  -0.000688
     9  H   -0.019562  -0.027659   0.544747  -0.000103
    10  H   -0.000103  -0.000688  -0.000103   0.484267
 Mulliken charges:
               1
     1  C   -0.160190
     2  C    0.212664
     3  O   -0.180616
     4  C    0.081994
     5  O   -0.209808
     6  O   -0.133160
     7  H    0.130801
     8  Br  -0.048736
     9  H    0.130854
    10  H    0.176199
 Sum of Mulliken charges =  -0.00000
 Mulliken charges with hydrogens summed into heavy atoms:
               1
     1  C    0.101464
     2  C    0.212664
     3  O   -0.180616
     4  C    0.081994
     5  O   -0.209808
     6  O    0.043038
     8  Br  -0.048736
 APT charges:
               1
     1  C    0.075368
     2  C    0.993954
     3  O   -0.596048
     4  C    0.617190
     5  O   -0.671550
     6  O   -0.726718
     7  H    0.044093
     8  Br  -0.163587
     9  H    0.044036
    10  H    0.383261
 Sum of APT charges =  -0.00000
 APT charges with hydrogens summed into heavy atoms:
               1
     1  C    0.163497
     2  C    0.993954
     3  O   -0.596048
     4  C    0.617190
     5  O   -0.671550
     6  O   -0.343457
     8  Br  -0.163587
 Electronic spatial extent (au):  <R**2>=           1451.6851
 Charge=             -0.0000 electrons
 Dipole moment (field-independent basis, Debye):
    X=              0.3823    Y=             -0.2729    Z=             -0.0032  Tot=              0.4697
 Quadrupole moment (field-independent basis, Debye-Ang):
   XX=            -63.1661   YY=            -50.3611   ZZ=            -49.7677
   XY=              3.2621   XZ=              0.0067   YZ=             -0.0044
 Traceless Quadrupole moment (field-independent basis, Debye-Ang):
   XX=             -8.7345   YY=              4.0706   ZZ=              4.6639
   XY=              3.2621   XZ=              0.0067   YZ=             -0.0044
 Octapole moment (field-independent basis, Debye-Ang**2):
  XXX=             85.7497  YYY=              0.9364  ZZZ=              0.0075  XYY=              5.3262
  XXY=             -4.1897  XXZ=              0.0027  XZZ=              8.1556  YZZ=              3.3567
  YYZ=              0.0094  XYZ=             -0.0033
 Hexadecapole moment (field-independent basis, Debye-Ang**3):
 XXXX=          -1263.5495 YYYY=           -313.3018 ZZZZ=            -54.9754 XXXY=           -146.7213
 XXXZ=              0.1062 YYYX=           -128.0539 YYYZ=              0.0004 ZZZX=              0.0221
 ZZZY=             -0.0028 XXYY=           -257.5619 XXZZ=           -200.2530 YYZZ=            -63.5804
 XXYZ=              0.0219 YYXZ=              0.0075 ZZXY=            -50.4459
 N-N= 4.686831875187D+02 E-N=-7.890617399653D+03  KE= 2.910402209864D+03
  Exact polarizability:  72.702   2.399  61.504   0.003  -0.004  39.424
 Approx polarizability:  74.992  -6.771  78.209   0.006  -0.005  47.308
 Calling FoFJK, ICntrl=    100127 FMM=F ISym2X=0 I1Cent= 0 IOpClX= 0 NMat=1 NMatS=1 NMatT=0.
 -------------------------------------------------------------------
 Center     Atomic                   Forces (Hartrees/Bohr)
 Number     Number              X              Y              Z
 -------------------------------------------------------------------
      1        6           0.000012036   -0.000011676    0.000004687
      2        6          -0.000013450    0.000006779   -0.000000580
      3        8           0.000046508    0.000006539    0.000003674
      4        6           0.000010911    0.000021749    0.000002328
      5        8           0.000018052   -0.000019117   -0.000001132
      6        8           0.000032128    0.000006390   -0.000003584
      7        1          -0.000010361    0.000002927    0.000005212
      8       35          -0.000007873   -0.000001754   -0.000006546
      9        1          -0.000010803    0.000003453   -0.000003909
     10        1          -0.000077148   -0.000015291   -0.000000151
 -------------------------------------------------------------------
 Cartesian Forces:  Max     0.000077148 RMS     0.000019754
 NDeriv=     24 NFrqRd=  0 NDerD0=      0 MskFDP=       0 MskDFD=       0 MskDF0=       0
 Re-enter D2Numr:  normal mode   1 step-up   number 1
 Basis read from rwf:  (5D, 7F)
   135 basis functions,   376 primitive gaussians,   144 cartesian basis functions
    40 alpha electrons       40 beta electrons
       nuclear repulsion energy       468.6864760091 Hartrees.
 NAtoms=   10 NActive=   10 NUniq=   10 SFac= 1.00D+00 NAtFMM=   60 NAOKFM=F Big=F
 Integral buffers will be    131072 words long.
 Raffenetti 2 integral format.
 Two-electron integral symmetry is turned off.
 Nuclear repulsion after empirical dispersion term =      468.6831875187 Hartrees.
 One-electron integrals computed using PRISM.
 NBasis=   135 RedAO= T EigKep=  2.36D-03  NBF=   135
 NBsUse=   135 1.00D-06 EigRej= -1.00D+00 NBFU=   135
 Initial guess from the checkpoint file:  ""neutro.chk""
 B after Tr=     0.000000    0.000000    0.000091
         Rot=    1.000000   -0.000051   -0.000011   -0.000000 Ang=  -0.01 deg.
 Keep R1 ints in memory in canonical form, NReq=92050076.
 Requested convergence on RMS density matrix=1.00D-08 within 128 cycles.
 Requested convergence on MAX density matrix=1.00D-06.
 Requested convergence on             energy=1.00D-06.
 No special actions if energy rises.
 SCF Done:  E(RwB97XD) =  -2915.90332810     A.U. after    8 cycles
            NFock=  8  Conv=0.76D-08     -V/T= 2.0019
 DoSCS=F DFT=T ScalE2(SS,OS)=  1.000000  1.000000
 Range of M.O.s used for correlation:     1   135
 NBasis=   135 NAE=    40 NBE=    40 NFC=     0 NFV=     0
 NROrb=    135 NOA=    40 NOB=    40 NVA=    95 NVB=    95
 Symmetrizing basis deriv contribution to polar:
 IMax=3 JMax=2 DiffMx= 0.00D+00
 G2DrvN: will do    11 centers at a time, making    1 passes.
 Calling FoFCou, ICntrl=  3107 FMM=F I1Cent=   0 AccDes= 0.00D+00.
 End of G2Drv F.D. properties file   721 does not exist.
 End of G2Drv F.D. properties file   722 does not exist.
 End of G2Drv F.D. properties file   788 does not exist.
          IDoAtm=1111111111
          Differentiating once with respect to electric field.
                with respect to dipole field.
          Differentiating once with respect to nuclear coordinates.
 Keep R1 ints in memory in canonical form, NReq=92041695.
          There are    33 degrees of freedom in the 1st order CPHF.  IDoFFX=6 NUNeed=     3.
     30 vectors produced by pass  0 Test12= 1.15D-14 3.03D-09 XBig12= 2.99D+01 2.85D+00.
 AX will form    30 AO Fock derivatives at one time.
     30 vectors produced by pass  1 Test12= 1.15D-14 3.03D-09 XBig12= 5.09D+00 5.32D-01.
     30 vectors produced by pass  2 Test12= 1.15D-14 3.03D-09 XBig12= 1.58D-01 7.51D-02.
     30 vectors produced by pass  3 Test12= 1.15D-14 3.03D-09 XBig12= 3.08D-03 9.97D-03.
     30 vectors produced by pass  4 Test12= 1.15D-14 3.03D-09 XBig12= 3.70D-05 1.14D-03.
     30 vectors produced by pass  5 Test12= 1.15D-14 3.03D-09 XBig12= 3.94D-07 1.05D-04.
     29 vectors produced by pass  6 Test12= 1.15D-14 3.03D-09 XBig12= 2.16D-09 7.09D-06.
     12 vectors produced by pass  7 Test12= 1.15D-14 3.03D-09 XBig12= 9.47D-12 4.43D-07.
      3 vectors produced by pass  8 Test12= 1.15D-14 3.03D-09 XBig12= 4.20D-14 2.93D-08.
 InvSVY:  IOpt=1 It=  1 EMax= 7.99D-15
 Solved reduced A of dimension   224 with    33 vectors.
 Isotropic polarizability for W=    0.000000       57.88 Bohr**3.
 End of Minotr F.D. properties file   721 does not exist.
 End of Minotr F.D. properties file   722 does not exist.
 End of Minotr F.D. properties file   788 does not exist.

 **********************************************************************

            Population analysis using the SCF density.

 **********************************************************************

 Alpha  occ. eigenvalues -- -483.17068 -62.72258 -56.51487 -56.51117 -56.51114
 Alpha  occ. eigenvalues --  -19.33928 -19.32601 -19.28679 -10.46107 -10.44548
 Alpha  occ. eigenvalues --  -10.38869  -8.84967  -6.67243  -6.65843  -6.65831
 Alpha  occ. eigenvalues --   -2.77197  -2.76795  -2.76787  -2.75658  -2.75657
 Alpha  occ. eigenvalues --   -1.25014  -1.20712  -1.16009  -0.94852  -0.85116
 Alpha  occ. eigenvalues --   -0.76333  -0.71740  -0.64664  -0.60539  -0.59081
 Alpha  occ. eigenvalues --   -0.55851  -0.55634  -0.52721  -0.50075  -0.48305
 Alpha  occ. eigenvalues --   -0.44652  -0.43241  -0.38550  -0.38105  -0.36713
 Alpha virt. eigenvalues --   -0.02911   0.04515   0.09893   0.10878   0.12383
 Alpha virt. eigenvalues --    0.12474   0.13141   0.15795   0.20507   0.20607
 Alpha virt. eigenvalues --    0.25036   0.31311   0.31652   0.32871   0.33368
 Alpha virt. eigenvalues --    0.35909   0.38108   0.39745   0.47282   0.50033
 Alpha virt. eigenvalues --    0.52801   0.54592   0.57241   0.60227   0.62374
 Alpha virt. eigenvalues --    0.65985   0.66525   0.68059   0.69780   0.71294
 Alpha virt. eigenvalues --    0.73305   0.74795   0.75166   0.78754   0.82155
 Alpha virt. eigenvalues --    0.86808   0.90197   0.98330   0.99795   1.01078
 Alpha virt. eigenvalues --    1.02023   1.05142   1.05710   1.05863   1.06879
 Alpha virt. eigenvalues --    1.07572   1.09063   1.09363   1.10344   1.14164
 Alpha virt. eigenvalues --    1.17088   1.20297   1.22625   1.26062   1.29078
 Alpha virt. eigenvalues --    1.40127   1.42281   1.45713   1.46091   1.57869
 Alpha virt. eigenvalues --    1.58757   1.66765   1.69827   1.70140   1.70966
 Alpha virt. eigenvalues --    1.73836   1.83316   1.83711   1.92917   1.96297
 Alpha virt. eigenvalues --    2.02077   2.02969   2.04089   2.15406   2.17488
 Alpha virt. eigenvalues --    2.24303   2.27721   2.46230   2.49586   2.54436
 Alpha virt. eigenvalues --    2.66930   2.73157   2.75246   2.77720   2.86846
 Alpha virt. eigenvalues --    2.97968   3.10654   3.14788   3.23801   3.28557
 Alpha virt. eigenvalues --    3.43120   3.44318   3.54557   3.59551   3.78182
          Condensed to atoms (all electrons):
               1          2          3          4          5          6
     1  C    5.078191  -0.069660  -0.083619   0.227768   0.026464   0.005204
     2  C   -0.069660   4.501483  -0.056512   0.219695   0.762693   0.462222
     3  O   -0.083619  -0.056512   7.572424   0.683709   0.001336  -0.005537
     4  C    0.227768   0.219695   0.683709   5.075408  -0.098546  -0.088260
     5  O    0.026464   0.762693   0.001336  -0.098546   7.557028  -0.048308
     6  O    0.005204   0.462222  -0.005537  -0.088260  -0.048308   7.458855
     7  H    0.384202  -0.001484   0.000302  -0.015343   0.003916   0.000130
     8  Br   0.203856   0.009522   0.030876  -0.056880  -0.001992  -0.000928
     9  H    0.384308  -0.001489   0.000317  -0.015422   0.003977   0.000132
    10  H    0.003476  -0.039134   0.037319  -0.014123   0.003240   0.349651
               7          8          9         10
     1  C    0.384202   0.203856   0.384308   0.003476
     2  C   -0.001484   0.009522  -0.001489  -0.039134
     3  O    0.000302   0.030876   0.000317   0.037319
     4  C   -0.015343  -0.056880  -0.015422  -0.014123
     5  O    0.003916  -0.001992   0.003977   0.003240
     6  O    0.000130  -0.000928   0.000132   0.349651
     7  H    0.544747  -0.027659  -0.019562  -0.000103
     8  Br  -0.027659  34.920357  -0.027728  -0.000688
     9  H   -0.019562  -0.027728   0.544771  -0.000103
    10  H   -0.000103  -0.000688  -0.000103   0.484267
 Mulliken charges:
               1
     1  C   -0.160190
     2  C    0.212664
     3  O   -0.180616
     4  C    0.081994
     5  O   -0.209808
     6  O   -0.133160
     7  H    0.130854
     8  Br  -0.048736
     9  H    0.130801
    10  H    0.176199
 Sum of Mulliken charges =  -0.00000
 Mulliken charges with hydrogens summed into heavy atoms:
               1
     1  C    0.101464
     2  C    0.212664
     3  O   -0.180616
     4  C    0.081994
     5  O   -0.209808
     6  O    0.043038
     8  Br  -0.048736
 APT charges:
               1
     1  C    0.075368
     2  C    0.993954
     3  O   -0.596048
     4  C    0.617190
     5  O   -0.671550
     6  O   -0.726718
     7  H    0.044036
     8  Br  -0.163587
     9  H    0.044093
    10  H    0.383261
 Sum of APT charges =  -0.00000
 APT charges with hydrogens summed into heavy atoms:
               1
     1  C    0.163497
     2  C    0.993954
     3  O   -0.596048
     4  C    0.617190
     5  O   -0.671550
     6  O   -0.343457
     8  Br  -0.163587
 Electronic spatial extent (au):  <R**2>=           1451.6851
 Charge=             -0.0000 electrons
 Dipole moment (field-independent basis, Debye):
    X=              0.3823    Y=             -0.2729    Z=              0.0032  Tot=              0.4697
 Quadrupole moment (field-independent basis, Debye-Ang):
   XX=            -63.1661   YY=            -50.3611   ZZ=            -49.7677
   XY=              3.2621   XZ=             -0.0067   YZ=              0.0044
 Traceless Quadrupole moment (field-independent basis, Debye-Ang):
   XX=             -8.7345   YY=              4.0706   ZZ=              4.6639
   XY=              3.2621   XZ=             -0.0067   YZ=              0.0044
 Octapole moment (field-independent basis, Debye-Ang**2):
  XXX=             85.7497  YYY=              0.9364  ZZZ=             -0.0075  XYY=              5.3262
  XXY=             -4.1897  XXZ=             -0.0027  XZZ=              8.1556  YZZ=              3.3567
  YYZ=             -0.0094  XYZ=              0.0033
 Hexadecapole moment (field-independent basis, Debye-Ang**3):
 XXXX=          -1263.5495 YYYY=           -313.3018 ZZZZ=            -54.9754 XXXY=           -146.7213
 XXXZ=             -0.1062 YYYX=           -128.0539 YYYZ=             -0.0004 ZZZX=             -0.0221
 ZZZY=              0.0028 XXYY=           -257.5619 XXZZ=           -200.2530 YYZZ=            -63.5804
 XXYZ=             -0.0219 YYXZ=             -0.0075 ZZXY=            -50.4459
 N-N= 4.686831875187D+02 E-N=-7.890617399653D+03  KE= 2.910402209864D+03
  Exact polarizability:  72.702   2.399  61.504  -0.003   0.004  39.424
 Approx polarizability:  74.992  -6.771  78.209  -0.006   0.005  47.308
 Calling FoFJK, ICntrl=    100127 FMM=F ISym2X=0 I1Cent= 0 IOpClX= 0 NMat=1 NMatS=1 NMatT=0.
 -------------------------------------------------------------------
 Center     Atomic                   Forces (Hartrees/Bohr)
 Number     Number              X              Y              Z
 -------------------------------------------------------------------
      1        6           0.000012037   -0.000011676   -0.000004687
      2        6          -0.000013450    0.000006779    0.000000580
      3        8           0.000046508    0.000006539   -0.000003674
      4        6           0.000010911    0.000021749   -0.000002328
      5        8           0.000018052   -0.000019117    0.000001132
      6        8           0.000032128    0.000006390    0.000003584
      7        1          -0.000010803    0.000003453    0.000003909
      8       35          -0.000007874   -0.000001754    0.000006546
      9        1          -0.000010361    0.000002927   -0.000005212
     10        1          -0.000077148   -0.000015291    0.000000151
 -------------------------------------------------------------------
 Cartesian Forces:  Max     0.000077148 RMS     0.000019754
 NDeriv=     24 NFrqRd=  0 NDerD0=      0 MskFDP=       0 MskDFD=       0 MskDF0=       0
 Re-enter D2Numr:  normal mode   1 step-down number 1
 Basis read from rwf:  (5D, 7F)
   135 basis functions,   376 primitive gaussians,   144 cartesian basis functions
    40 alpha electrons       40 beta electrons
       nuclear repulsion energy       468.6864706344 Hartrees.
 NAtoms=   10 NActive=   10 NUniq=   10 SFac= 1.00D+00 NAtFMM=   60 NAOKFM=F Big=F
 Integral buffers will be    131072 words long.
 Raffenetti 2 integral format.
 Two-electron integral symmetry is turned off.
 Nuclear repulsion after empirical dispersion term =      468.6831821432 Hartrees.
 One-electron integrals computed using PRISM.
 NBasis=   135 RedAO= T EigKep=  2.36D-03  NBF=   135
 NBsUse=   135 1.00D-06 EigRej= -1.00D+00 NBFU=   135
 Initial guess from the checkpoint file:  ""neutro.chk""
 B after Tr=    -0.000000   -0.000000   -0.000060
         Rot=    1.000000    0.000026    0.000012    0.000000 Ang=   0.00 deg.
 Keep R1 ints in memory in canonical form, NReq=92050076.
 Requested convergence on RMS density matrix=1.00D-08 within 128 cycles.
 Requested convergence on MAX density matrix=1.00D-06.
 Requested convergence on             energy=1.00D-06.
 No special actions if energy rises.
 SCF Done:  E(RwB97XD) =  -2915.90332806     A.U. after    8 cycles
            NFock=  8  Conv=0.71D-08     -V/T= 2.0019
 DoSCS=F DFT=T ScalE2(SS,OS)=  1.000000  1.000000
 Range of M.O.s used for correlation:     1   135
 NBasis=   135 NAE=    40 NBE=    40 NFC=     0 NFV=     0
 NROrb=    135 NOA=    40 NOB=    40 NVA=    95 NVB=    95
 Symmetrizing basis deriv contribution to polar:
 IMax=3 JMax=2 DiffMx= 0.00D+00
 G2DrvN: will do    11 centers at a time, making    1 passes.
 Calling FoFCou, ICntrl=  3107 FMM=F I1Cent=   0 AccDes= 0.00D+00.
 End of G2Drv F.D. properties file   721 does not exist.
 End of G2Drv F.D. properties file   722 does not exist.
 End of G2Drv F.D. properties file   788 does not exist.
          IDoAtm=1111111111
          Differentiating once with respect to electric field.
                with respect to dipole field.
          Differentiating once with respect to nuclear coordinates.
 Keep R1 ints in memory in canonical form, NReq=92041695.
          There are    33 degrees of freedom in the 1st order CPHF.  IDoFFX=6 NUNeed=     3.
     30 vectors produced by pass  0 Test12= 1.15D-14 3.03D-09 XBig12= 2.99D+01 2.85D+00.
 AX will form    30 AO Fock derivatives at one time.
     30 vectors produced by pass  1 Test12= 1.15D-14 3.03D-09 XBig12= 5.09D+00 5.32D-01.
     30 vectors produced by pass  2 Test12= 1.15D-14 3.03D-09 XBig12= 1.58D-01 7.51D-02.
     30 vectors produced by pass  3 Test12= 1.15D-14 3.03D-09 XBig12= 3.08D-03 9.97D-03.
     30 vectors produced by pass  4 Test12= 1.15D-14 3.03D-09 XBig12= 3.70D-05 1.14D-03.
     30 vectors produced by pass  5 Test12= 1.15D-14 3.03D-09 XBig12= 3.94D-07 1.05D-04.
     28 vectors produced by pass  6 Test12= 1.15D-14 3.03D-09 XBig12= 2.16D-09 7.09D-06.
     12 vectors produced by pass  7 Test12= 1.15D-14 3.03D-09 XBig12= 9.47D-12 4.43D-07.
      3 vectors produced by pass  8 Test12= 1.15D-14 3.03D-09 XBig12= 4.22D-14 2.92D-08.
 InvSVY:  IOpt=1 It=  1 EMax= 5.33D-15
 Solved reduced A of dimension   223 with    33 vectors.
 Isotropic polarizability for W=    0.000000       57.88 Bohr**3.
 End of Minotr F.D. properties file   721 does not exist.
 End of Minotr F.D. properties file   722 does not exist.
 End of Minotr F.D. properties file   788 does not exist.

 **********************************************************************

            Population analysis using the SCF density.

 **********************************************************************

 Alpha  occ. eigenvalues -- -483.17068 -62.72258 -56.51487 -56.51117 -56.51114
 Alpha  occ. eigenvalues --  -19.33928 -19.32601 -19.28679 -10.46107 -10.44548
 Alpha  occ. eigenvalues --  -10.38869  -8.84967  -6.67243  -6.65843  -6.65831
 Alpha  occ. eigenvalues --   -2.77197  -2.76795  -2.76787  -2.75658  -2.75657
 Alpha  occ. eigenvalues --   -1.25014  -1.20712  -1.16009  -0.94852  -0.85116
 Alpha  occ. eigenvalues --   -0.76333  -0.71740  -0.64664  -0.60539  -0.59081
 Alpha  occ. eigenvalues --   -0.55851  -0.55634  -0.52721  -0.50075  -0.48305
 Alpha  occ. eigenvalues --   -0.44652  -0.43241  -0.38550  -0.38105  -0.36713
 Alpha virt. eigenvalues --   -0.02911   0.04515   0.09893   0.10878   0.12383
 Alpha virt. eigenvalues --    0.12474   0.13141   0.15795   0.20507   0.20607
 Alpha virt. eigenvalues --    0.25036   0.31311   0.31652   0.32871   0.33368
 Alpha virt. eigenvalues --    0.35909   0.38108   0.39745   0.47282   0.50033
 Alpha virt. eigenvalues --    0.52801   0.54592   0.57241   0.60227   0.62374
 Alpha virt. eigenvalues --    0.65985   0.66525   0.68059   0.69780   0.71294
 Alpha virt. eigenvalues --    0.73305   0.74795   0.75166   0.78754   0.82155
 Alpha virt. eigenvalues --    0.86808   0.90197   0.98330   0.99795   1.01078
 Alpha virt. eigenvalues --    1.02023   1.05142   1.05710   1.05863   1.06879
 Alpha virt. eigenvalues --    1.07572   1.09063   1.09363   1.10344   1.14164
 Alpha virt. eigenvalues --    1.17088   1.20297   1.22625   1.26062   1.29079
 Alpha virt. eigenvalues --    1.40127   1.42281   1.45712   1.46093   1.57869
 Alpha virt. eigenvalues --    1.58757   1.66765   1.69827   1.70140   1.70966
 Alpha virt. eigenvalues --    1.73836   1.83316   1.83710   1.92917   1.96297
 Alpha virt. eigenvalues --    2.02077   2.02969   2.04089   2.15406   2.17488
 Alpha virt. eigenvalues --    2.24303   2.27721   2.46230   2.49586   2.54436
 Alpha virt. eigenvalues --    2.66931   2.73157   2.75246   2.77720   2.86846
 Alpha virt. eigenvalues --    2.97968   3.10654   3.14788   3.23801   3.28557
 Alpha virt. eigenvalues --    3.43120   3.44318   3.54557   3.59551   3.78182
          Condensed to atoms (all electrons):
               1          2          3          4          5          6
     1  C    5.078191  -0.069660  -0.083619   0.227768   0.026464   0.005204
     2  C   -0.069660   4.501483  -0.056512   0.219695   0.762693   0.462221
     3  O   -0.083619  -0.056512   7.572424   0.683709   0.001336  -0.005537
     4  C    0.227768   0.219695   0.683709   5.075407  -0.098546  -0.088260
     5  O    0.026464   0.762693   0.001336  -0.098546   7.557029  -0.048308
     6  O    0.005204   0.462221  -0.005537  -0.088260  -0.048308   7.458855
     7  H    0.384271  -0.001500   0.000312  -0.015380   0.003977   0.000132
     8  Br   0.203856   0.009522   0.030876  -0.056880  -0.001992  -0.000928
     9  H    0.384239  -0.001474   0.000307  -0.015386   0.003916   0.000130
    10  H    0.003476  -0.039134   0.037319  -0.014123   0.003240   0.349651
               7          8          9         10
     1  C    0.384271   0.203856   0.384239   0.003476
     2  C   -0.001500   0.009522  -0.001474  -0.039134
     3  O    0.000312   0.030876   0.000307   0.037319
     4  C   -0.015380  -0.056880  -0.015386  -0.014123
     5  O    0.003977  -0.001992   0.003916   0.003240
     6  O    0.000132  -0.000928   0.000130   0.349651
     7  H    0.544706  -0.027698  -0.019562  -0.000103
     8  Br  -0.027698  34.920357  -0.027689  -0.000688
     9  H   -0.019562  -0.027689   0.544811  -0.000103
    10  H   -0.000103  -0.000688  -0.000103   0.484267
 Mulliken charges:
               1
     1  C   -0.160191
     2  C    0.212665
     3  O   -0.180616
     4  C    0.081995
     5  O   -0.209809
     6  O   -0.133161
     7  H    0.130844
     8  Br  -0.048736
     9  H    0.130810
    10  H    0.176199
 Sum of Mulliken charges =  -0.00000
 Mulliken charges with hydrogens summed into heavy atoms:
               1
     1  C    0.101464
     2  C    0.212665
     3  O   -0.180616
     4  C    0.081995
     5  O   -0.209809
     6  O    0.043038
     8  Br  -0.048736
 APT charges:
               1
     1  C    0.075368
     2  C    0.993954
     3  O   -0.596048
     4  C    0.617189
     5  O   -0.671549
     6  O   -0.726717
     7  H    0.044139
     8  Br  -0.163587
     9  H    0.043990
    10  H    0.383260
 Sum of APT charges =  -0.00000
 APT charges with hydrogens summed into heavy atoms:
               1
     1  C    0.163497
     2  C    0.993954
     3  O   -0.596048
     4  C    0.617189
     5  O   -0.671549
     6  O   -0.343457
     8  Br  -0.163587
 Electronic spatial extent (au):  <R**2>=           1451.6851
 Charge=             -0.0000 electrons
 Dipole moment (field-independent basis, Debye):
    X=              0.3823    Y=             -0.2729    Z=             -0.0047  Tot=              0.4698
 Quadrupole moment (field-independent basis, Debye-Ang):
   XX=            -63.1661   YY=            -50.3611   ZZ=            -49.7678
   XY=              3.2621   XZ=              0.0050   YZ=              0.0011
 Traceless Quadrupole moment (field-independent basis, Debye-Ang):
   XX=             -8.7345   YY=              4.0706   ZZ=              4.6639
   XY=              3.2621   XZ=              0.0050   YZ=              0.0011
 Octapole moment (field-independent basis, Debye-Ang**2):
  XXX=             85.7497  YYY=              0.9364  ZZZ=              0.0016  XYY=              5.3262
  XXY=             -4.1897  XXZ=              0.0026  XZZ=              8.1556  YZZ=              3.3567
  YYZ=             -0.0089  XYZ=              0.0061
 Hexadecapole moment (field-independent basis, Debye-Ang**3):
 XXXX=          -1263.5495 YYYY=           -313.3017 ZZZZ=            -54.9754 XXXY=           -146.7213
 XXXZ=              0.0305 YYYX=           -128.0539 YYYZ=              0.0372 ZZZX=              0.0005
 ZZZY=             -0.0112 XXYY=           -257.5619 XXZZ=           -200.2530 YYZZ=            -63.5803
 XXYZ=             -0.0225 YYXZ=              0.0093 ZZXY=            -50.4459
 N-N= 4.686831821432D+02 E-N=-7.890617386282D+03  KE= 2.910402206347D+03
  Exact polarizability:  72.702   2.399  61.504   0.005   0.004  39.424
 Approx polarizability:  74.992  -6.771  78.209   0.009   0.007  47.308
 Calling FoFJK, ICntrl=    100127 FMM=F ISym2X=0 I1Cent= 0 IOpClX= 0 NMat=1 NMatS=1 NMatT=0.
 -------------------------------------------------------------------
 Center     Atomic                   Forces (Hartrees/Bohr)
 Number     Number              X              Y              Z
 -------------------------------------------------------------------
      1        6           0.000011995   -0.000011985    0.000009489
      2        6          -0.000013938    0.000007080   -0.000000790
      3        8           0.000046338    0.000007115   -0.000013685
      4        6           0.000011171    0.000021479   -0.000001902
      5        8           0.000018416   -0.000020073   -0.000014144
      6        8           0.000032122    0.000006959    0.000015763
      7        1          -0.000010351    0.000002345    0.000006195
      8       35          -0.000007582   -0.000001786    0.000001263
      9        1          -0.000011051    0.000004124   -0.000003163
     10        1          -0.000077119   -0.000015257    0.000000973
 -------------------------------------------------------------------
 Cartesian Forces:  Max     0.000077119 RMS     0.000020340
 NDeriv=     24 NFrqRd=  0 NDerD0=      0 MskFDP=       0 MskDFD=       0 MskDF0=       0
 Re-enter D2Numr:  normal mode   2 step-up   number 1
 Basis read from rwf:  (5D, 7F)
   135 basis functions,   376 primitive gaussians,   144 cartesian basis functions
    40 alpha electrons       40 beta electrons
       nuclear repulsion energy       468.6864706349 Hartrees.
 NAtoms=   10 NActive=   10 NUniq=   10 SFac= 1.00D+00 NAtFMM=   60 NAOKFM=F Big=F
 Integral buffers will be    131072 words long.
 Raffenetti 2 integral format.
 Two-electron integral symmetry is turned off.
 Nuclear repulsion after empirical dispersion term =      468.6831821437 Hartrees.
 One-electron integrals computed using PRISM.
 NBasis=   135 RedAO= T EigKep=  2.36D-03  NBF=   135
 NBsUse=   135 1.00D-06 EigRej= -1.00D+00 NBFU=   135
 Initial guess from the checkpoint file:  ""neutro.chk""
 B after Tr=     0.000000    0.000000    0.000060
         Rot=    1.000000   -0.000026   -0.000012    0.000000 Ang=  -0.00 deg.
 Keep R1 ints in memory in canonical form, NReq=92050076.
 Requested convergence on RMS density matrix=1.00D-08 within 128 cycles.
 Requested convergence on MAX density matrix=1.00D-06.
 Requested convergence on             energy=1.00D-06.
 No special actions if energy rises.
 SCF Done:  E(RwB97XD) =  -2915.90332806     A.U. after    8 cycles
            NFock=  8  Conv=0.71D-08     -V/T= 2.0019
 DoSCS=F DFT=T ScalE2(SS,OS)=  1.000000  1.000000
 Range of M.O.s used for correlation:     1   135
 NBasis=   135 NAE=    40 NBE=    40 NFC=     0 NFV=     0
 NROrb=    135 NOA=    40 NOB=    40 NVA=    95 NVB=    95
 Symmetrizing basis deriv contribution to polar:
 IMax=3 JMax=2 DiffMx= 0.00D+00
 G2DrvN: will do    11 centers at a time, making    1 passes.
 Calling FoFCou, ICntrl=  3107 FMM=F I1Cent=   0 AccDes= 0.00D+00.
 End of G2Drv F.D. properties file   721 does not exist.
 End of G2Drv F.D. properties file   722 does not exist.
 End of G2Drv F.D. properties file   788 does not exist.
          IDoAtm=1111111111
          Differentiating once with respect to electric field.
                with respect to dipole field.
          Differentiating once with respect to nuclear coordinates.
 Keep R1 ints in memory in canonical form, NReq=92041695.
          There are    33 degrees of freedom in the 1st order CPHF.  IDoFFX=6 NUNeed=     3.
     30 vectors produced by pass  0 Test12= 1.15D-14 3.03D-09 XBig12= 2.99D+01 2.85D+00.
 AX will form    30 AO Fock derivatives at one time.
     30 vectors produced by pass  1 Test12= 1.15D-14 3.03D-09 XBig12= 5.09D+00 5.32D-01.
     30 vectors produced by pass  2 Test12= 1.15D-14 3.03D-09 XBig12= 1.58D-01 7.51D-02.
     30 vectors produced by pass  3 Test12= 1.15D-14 3.03D-09 XBig12= 3.08D-03 9.97D-03.
     30 vectors produced by pass  4 Test12= 1.15D-14 3.03D-09 XBig12= 3.70D-05 1.14D-03.
     30 vectors produced by pass  5 Test12= 1.15D-14 3.03D-09 XBig12= 3.94D-07 1.05D-04.
     29 vectors produced by pass  6 Test12= 1.15D-14 3.03D-09 XBig12= 2.16D-09 7.09D-06.
     12 vectors produced by pass  7 Test12= 1.15D-14 3.03D-09 XBig12= 9.47D-12 4.43D-07.
      3 vectors produced by pass  8 Test12= 1.15D-14 3.03D-09 XBig12= 4.20D-14 2.93D-08.
 InvSVY:  IOpt=1 It=  1 EMax= 1.33D-15
 Solved reduced A of dimension   224 with    33 vectors.
 Isotropic polarizability for W=    0.000000       57.88 Bohr**3.
 End of Minotr F.D. properties file   721 does not exist.
 End of Minotr F.D. properties file   722 does not exist.
 End of Minotr F.D. properties file   788 does not exist.

 **********************************************************************

            Population analysis using the SCF density.

 **********************************************************************

 Alpha  occ. eigenvalues -- -483.17068 -62.72258 -56.51487 -56.51117 -56.51114
 Alpha  occ. eigenvalues --  -19.33928 -19.32601 -19.28679 -10.46107 -10.44548
 Alpha  occ. eigenvalues --  -10.38869  -8.84967  -6.67243  -6.65843  -6.65831
 Alpha  occ. eigenvalues --   -2.77197  -2.76795  -2.76787  -2.75658  -2.75657
 Alpha  occ. eigenvalues --   -1.25014  -1.20712  -1.16009  -0.94852  -0.85116
 Alpha  occ. eigenvalues --   -0.76333  -0.71740  -0.64664  -0.60539  -0.59081
 Alpha  occ. eigenvalues --   -0.55851  -0.55634  -0.52721  -0.50075  -0.48305
 Alpha  occ. eigenvalues --   -0.44652  -0.43241  -0.38550  -0.38105  -0.36713
 Alpha virt. eigenvalues --   -0.02911   0.04515   0.09893   0.10878   0.12383
 Alpha virt. eigenvalues --    0.12474   0.13141   0.15795   0.20507   0.20607
 Alpha virt. eigenvalues --    0.25036   0.31311   0.31652   0.32871   0.33368
 Alpha virt. eigenvalues --    0.35909   0.38108   0.39745   0.47282   0.50033
 Alpha virt. eigenvalues --    0.52801   0.54592   0.57241   0.60227   0.62374
 Alpha virt. eigenvalues --    0.65985   0.66525   0.68059   0.69780   0.71294
 Alpha virt. eigenvalues --    0.73305   0.74795   0.75166   0.78754   0.82155
 Alpha virt. eigenvalues --    0.86808   0.90197   0.98330   0.99795   1.01078
 Alpha virt. eigenvalues --    1.02023   1.05142   1.05710   1.05863   1.06879
 Alpha virt. eigenvalues --    1.07572   1.09063   1.09363   1.10344   1.14164
 Alpha virt. eigenvalues --    1.17088   1.20297   1.22625   1.26062   1.29079
 Alpha virt. eigenvalues --    1.40127   1.42281   1.45712   1.46093   1.57869
 Alpha virt. eigenvalues --    1.58757   1.66765   1.69827   1.70140   1.70966
 Alpha virt. eigenvalues --    1.73836   1.83316   1.83710   1.92917   1.96297
 Alpha virt. eigenvalues --    2.02077   2.02969   2.04089   2.15406   2.17488
 Alpha virt. eigenvalues --    2.24303   2.27721   2.46230   2.49586   2.54436
 Alpha virt. eigenvalues --    2.66931   2.73157   2.75246   2.77720   2.86846
 Alpha virt. eigenvalues --    2.97968   3.10654   3.14788   3.23801   3.28557
 Alpha virt. eigenvalues --    3.43120   3.44318   3.54557   3.59551   3.78182
          Condensed to atoms (all electrons):
               1          2          3          4          5          6
     1  C    5.078191  -0.069660  -0.083619   0.227768   0.026464   0.005204
     2  C   -0.069660   4.501483  -0.056512   0.219695   0.762693   0.462221
     3  O   -0.083619  -0.056512   7.572424   0.683709   0.001336  -0.005537
     4  C    0.227768   0.219695   0.683709   5.075407  -0.098546  -0.088260
     5  O    0.026464   0.762693   0.001336  -0.098546   7.557029  -0.048308
     6  O    0.005204   0.462221  -0.005537  -0.088260  -0.048308   7.458855
     7  H    0.384239  -0.001474   0.000307  -0.015386   0.003916   0.000130
     8  Br   0.203856   0.009522   0.030876  -0.056880  -0.001992  -0.000928
     9  H    0.384271  -0.001500   0.000312  -0.015380   0.003977   0.000132
    10  H    0.003476  -0.039134   0.037319  -0.014123   0.003240   0.349651
               7          8          9         10
[...]
 7504,0.00035168,0.00015025,-0.00005213,-0.00015329,0.00000701,-0.00004
 437,0.00005086,-0.00002037,-0.00036028,0.00008834,0.00022533,-0.000193
 29,-0.00010726,-0.00014462,-0.00000834,-0.00001295,-0.00011519,0.00002
 014,-0.00004490,0.00016834,0.00008686,0.00017563,0.00012620,-0.0000372
 4,0.00002539,-0.00005075,0.00001682,-0.00012529,-0.00018593,0.00016484
 ,0.00105675,-0.00081092,-0.00000509,0.00184259,0.00123654,0.00000641,0
 .00051260,-0.00002087,-0.00000061,-0.00205977,0.00049574,0.00000031,-0
 .00042506,-0.00133333,-0.00000267,-0.00053671,0.00045279,0.00000135,0.
 00004225,0.00000083,0.00002709,-0.00057300,0.00014128,-0.00003656,-0.0
 0000429,0.00001846,0.00000613,0.00000537,-0.00001186,0.00001550,-0.000
 00036,-0.00023941,0.00025954,0.00000022,0.00013473,0.00009535,-0.00000
 233,-0.00000932,-0.00004491,0.00000126,0.00000452,0.00000403,-0.000031
 35,-0.00000489,-0.00028090,-0.00000034,0.00000232,0.00011204,-0.000003
 71,-0.00000150,-0.00004199,0.00000009,0.00000189,-0.00003901,0.0000011
 7,-0.00000138,0.00025307,0.00000137,0.00000009,-0.00012222,0.00000264,
 0.00000082,0.00004134,-0.00004881,-0.00000880,0.00000634,0.00000799,0.
 00000361,-0.00022473,0.00011399,-0.00019686,-0.00017854,-0.00007747,-0
 .00014507,-0.00002234,0.00007442,-0.00043695,-0.00009268,-0.00002819,0
 .00053171,0.00020171,0.00006637,0.00000054,-0.00003494,0.00009342,0.00
 016833,0.00000215,0.00001327,0.00006689,-0.00003516,0.00005718,0.00001
 379,0.00004157,-0.00008760,-0.00000103,0.00013494,-0.00007411,-0.00011
 878,0.00017591,0.00002417,-0.00002289,-0.00003319,0.00010057,-0.000146
 19,0.00017192,-0.00035016,0.00015088,-0.00005106,0.00015409,0.00000863
 ,-0.00004373,-0.00005208,0.00006776,0.00000886,-0.00000875,0.00000931,
 0.00000781,0.00000477,-0.00002919,-0.00036424,-0.00008899,-0.00022182,
 -0.00019517,0.00010746,0.00014279,-0.00000748,0.00001397,0.00011696,0.
 00002247,0.00004475,-0.00017240,0.00008077,-0.00017505,-0.00012546,-0.
 00003845,-0.00002514,0.00005193,0.00002217,0.00003520,0.00000868,-0.00
 005600,-0.00003609,0.00002721,0.00001106,0.00013422,0.00019008,0.00016
 111,0.00004844,0.00133887,-0.00000525,0.00037522,-0.00456785,0.0000056
 0,-0.07140048,0.00802501,-0.00000021,-0.00231482,-0.00606604,-0.000000
 07,0.00066677,0.00014553,-0.00000233,-0.00135781,0.01035321,0.00000181
 ,-0.00022269,0.00008213,0.00000974,0.00008313,-0.00004568,-0.00000045,
 -0.00022458,0.00008139,-0.00001007,0.07434666,0.00003396,0.00003984,-0
 .00000758,0.00306689,-0.00737787,0.00001845,0.00125135,0.00006096,0.00
 000049,0.00219627,-0.00120739,-0.00000214,0.00030741,-0.00036663,-0.00
 001116,0.00246774,-0.00102474,0.00000502,0.00003246,-0.00000503,0.0000
 1796,-0.00003161,-0.00002839,-0.00000199,0.00002762,-0.00000676,-0.000
 01865,-0.00935262,0.00990645,-0.00000432,-0.00000429,-0.00009608,-0.00
 000553,-0.00000346,0.00332274,0.00000908,0.00000949,-0.00086977,-0.000
 00035,-0.00000393,-0.00009499,0.00000041,-0.00000084,0.00033231,-0.000
 00515,-0.00000320,0.00076438,0.00001604,-0.00001246,-0.00000186,0.0000
 0352,0.00000267,0.00001038,-0.00001594,0.00001122,0.00000308,0.0000036
 9,0.00000425,-0.00336714,-0.53210657,0.25980220,-0.01975621,0.00000350
 ,-0.00000262,1.44695936,0.00061800,0.00012525,-0.00000114,-0.00228779,
 0.00292351,-0.00452632,0.00000434,-0.00070401,-0.00114450,-0.00000224,
 -0.00000743,0.00117653,0.00000887,0.00000049,-0.00014638,0.00086103,-0
 .00129575,-0.00000771,0.00045114,0.00022389,0.00000527,-0.00018502,0.0
 0215292,-0.00252548,-0.00000743,-0.00001381,-0.00038733,0.00000155,0.0
 0111939,-0.00422492,-0.00000048,-0.00000257,-0.00027085,-0.00000169,-0
 .00000207,0.00018861,-0.00000133,0.00000192,-0.00046493,-0.00016998,0.
 00941728,0.00000173,-0.00044548,-0.00114804,-0.00000452,0.00060340,-0.
 00527293,0.00000023,0.00138226,-0.01474203,0.00684094,0.00000967,-0.00
 021952,0.00124128,-0.00000133,0.00034637,0.00462106,0.00000163,0.00114
 590,-0.00836183,0.00000157,0.00000668,-0.01154008,0.00000530,0.0000043
 4,0.00088964,0.00000224,-0.00000508,0.00177963,-0.00000051,-0.00000405
 ,-0.00641298,0.00056736,-0.00099443,0.00000012,0.00075742,0.00113009,-
 0.00000277,-0.00011759,0.00045632,0.00000163,0.00003241,-0.00064764,-0
 .00000396,-0.00080828,-0.00088579,0.00162035,-0.00000068,0.00138324,0.
 00078787,0.00000064,-0.00004957,0.00046551,0.00000128,-0.00008346,-0.0
 0066926,-0.00000243,-0.00106177,-0.00084030,0.00000098,0.00000681,-0.0
 0020497,-0.00000493,0.00000003,-0.00041846,-0.00000098,-0.00000050,-0.
 00008446,0.00000255,-0.00000202,0.00008036,0.00000084,-0.00000102,0.00
 040187,-0.00060540,0.00117691,0.00000575,0.00054829,0.00051181,-0.0000
 1094,-0.00003147,0.00018443,0.00000146,0.00052837,-0.00042561,-0.00000
 313,-0.00020059,-0.00012175,0.00000531,-0.00038784,-0.00041672,0.00020
 176,0.00000038,0.00045492,-0.00044433,-0.00000331,0.00016817,0.0000980
 4,0.00000002,0.00009392,0.00008824,0.00000050,-0.00029686,0.00012908,0
 .00000200,-0.00048290,0.00063708,-0.00000198,-0.00000873,0.00016494,-0
 .00000399,-0.00000295,0.00008587,-0.00000052,0.00000456,-0.00006428,-0
 .00000023,0.00000448,-0.00020498,0.00000264,0.00000225,0.00012845,0.00
 000105,-0.00000184,-0.00015861,0.25984951,-0.13223581,-0.27608325,0.00
 040459,-0.00145233,-0.00098770,-0.00016299,0.00063985,-0.00023302,-0.0
 0195921,0.00731237,0.00668131,-0.00023715,0.00036987,0.00048586,-0.000
 00444,0.00033135,-0.00007212,-0.26569796,-0.12898989,0.00859667,-0.660
 74163,-0.00036729,0.00198596,0.00048511,-0.00043454,0.00111903,0.00016
 384,-0.00170748,-0.00166211,-0.00316737,0.00063229,-0.00066036,-0.0003
 0410,-0.00043742,-0.00024404,-0.00003210,0.12294765,-0.02296955,-0.256
 53186,-0.63501456,-0.71587051,-0.00007155,0.00073371,-0.00086808,-0.00
 109658,0.00106542,-0.00070014,-0.00669029,0.01589285,0.00773270,0.0006
 5778,-0.00061731,0.00007731,0.00002413,-0.00018023,-0.00000691,0.26389
 143,0.63904496,0.70294176,0.01084001,-0.00372895,-0.00000166,-0.000176
 55,-0.00006551,0.00000331,-0.00106383,0.00024403,-0.00000050,0.0023675
 6,0.00003865,0.00000059,0.00007319,0.00010094,-0.00000139,0.00015604,-
 0.00001273,0.00000021,0.00079169,0.00498879,0.00896808,-0.01381950,0.0
 0924782,0.00089792,-0.00000179,-0.00015490,0.00036491,0.00000281,0.000
 36174,-0.00041899,-0.00000030,-0.00072465,-0.00041908,0.00000048,0.000
 15567,-0.00005301,-0.00000119,-0.00003210,-0.00003488,0.00000035,-0.00
 111688,-0.00018888,0.00331508,-0.00659391,0.00002856,-0.00000051,0.000
 00229,-0.00467589,-0.00000211,-0.00000219,-0.00006075,0.00000014,0.000
 00228,0.00015720,0.00000053,-0.00000214,0.00001106,0.00000140,0.000000
 54,-0.00002296,0.00000155,0.00000099,0.00001686,-0.00259565,0.00018234
 ,0.00135898,0.00000158,0.00000117,0.00184832,0.25984728,-0.13223467,0.
 27608095,0.00040151,-0.00145091,0.00098372,-0.00015917,0.00064147,0.00
 023298,-0.00196054,0.00730908,-0.00668097,-0.00023680,0.00037199,-0.00
 048420,-0.00000227,0.00033041,0.00007387,0.00708492,0.00319770,-0.0089
 8426,0.00079799,-0.00111304,0.00259500,-0.26570170,-0.12898889,0.00860
 294,0.66074189,-0.00036948,0.00198461,-0.00048327,-0.00043960,0.001117
 74,-0.00016424,-0.00170647,-0.00166366,0.00316858,0.00063513,-0.000657
 71,0.00030249,-0.00042934,-0.00024055,0.00003159,0.00319952,0.01401430
 ,-0.02436487,0.00498839,-0.00018965,-0.00018446,0.12294522,-0.02297097
 ,0.25653013,0.63501600,-0.71587193,0.00007307,-0.00073545,-0.00087012,
 0.00110121,-0.00106199,-0.00069791,0.00668918,-0.01589815,0.00772688,-
 0.00065846,0.00061734,0.00007813,-0.00002813,0.00017985,-0.00000221,0.
 00898370,0.02436480,0.00540979,-0.00896925,-0.00331559,0.00136257,-0.2
 6388881,-0.63904344,0.70293982,0.00029585,-0.00003052,-0.00000219,-0.0
 0027113,0.00003304,0.00000273,-0.00018910,-0.00014941,-0.00000012,-0.0
 0038132,-0.00012373,0.00000026,0.00016914,-0.00002182,-0.00000121,-0.0
 0000217,-0.00017092,0.00000068,-0.00006944,0.00016906,-0.00016625,0.00
 003382,-0.00002786,-0.00000042,-0.00007040,0.00016542,0.00016763,0.000
 48461,-0.00009954,0.00005534,-0.00000344,-0.00013696,0.00013784,0.0000
 0871,-0.00001152,0.00012936,0.00000035,-0.00001162,-0.00001293,-0.0000
 0112,-0.00000499,-0.00011920,-0.00000537,0.00006954,-0.00018497,0.0000
 0233,0.00000611,0.00000927,0.00012622,0.00003418,0.00000961,-0.0000009
 8,0.00000358,0.00000342,-0.00012404,0.00015069,-0.00003731,-0.00000308
 ,-0.00000171,0.00013001,-0.00000450,-0.00000480,0.00001636,0.00000402,
 0.00000786,0.00015616,-0.00000003,-0.00000349,-0.00006071,0.00000226,0
 .00000095,-0.00002921,-0.00000105,-0.00000070,0.00003718,-0.00007054,0
 .00000280,-0.00007661,0.00000124,0.00000098,0.00001255,0.00007177,-0.0
 0000446,-0.00007147,0.00000134,0.00000199,-0.00011122,-0.57367539,0.35
 936640,0.16263389,0.00000348,-0.00000279,1.38613690,0.00058522,-0.0001
 7922,-0.00000120,-0.00245821,0.00371602,-0.00193058,0.00000450,-0.0010
 7687,-0.00120662,-0.00000224,-0.00000723,0.00093517,0.00000892,0.00000
 036,-0.00001222,0.00168316,-0.00073941,-0.00000776,0.00042099,0.000169
 97,0.00000528,-0.00003340,0.00030336,-0.00541686,-0.00000748,-0.000164
 89,-0.00007304,0.00000159,0.00042373,-0.00158338,-0.00000049,-0.000002
 56,-0.00106728,-0.00000175,-0.00000199,0.00010214,-0.00000128,0.000001
 91,-0.00068887,0.00492694,0.00362720,0.00000181,-0.00056417,-0.0008774
 7,-0.00000462,0.00008301,-0.00417508,0.00000025,-0.00184721,-0.0298861
 3,-0.00221677,0.00000971,0.00054311,0.00096798,-0.00000137,0.00027689,
 0.00402140,0.00000162,0.00563169,-0.00648911,0.00000159,0.00000664,-0.
 01437966,0.00000534,0.00000427,0.00111408,0.00000219,-0.00000508,0.002
 45910,-0.00000054,-0.00000402,-0.00629826,0.00052939,-0.00089597,0.000
 00008,0.00089720,0.00134574,-0.00000274,-0.00003666,0.00038332,0.00000
 160,-0.00032466,-0.00088973,-0.00000393,-0.00068449,-0.00128510,0.0010
 8662,-0.00000073,0.00161778,0.00100040,0.00000067,-0.00000591,0.000386
 32,0.00000123,-0.00012491,-0.00082847,-0.00000239,-0.00120906,-0.00099
 971,0.00000098,0.00000671,0.00016888,-0.00000500,0.00000009,-0.0004912
 3,-0.00000098,-0.00000053,-0.00007046,0.00000262,-0.00000197,-0.000012
 11,0.00000083,-0.00000104,0.00042203,-0.00063883,0.00040989,0.00000576
 ,0.00061239,0.00038281,-0.00001085,0.00000240,0.00009643,0.00000145,0.
 00045321,-0.00050191,-0.00000311,-0.00026804,-0.00014164,0.00000529,-0
 .00044066,-0.00064289,0.00004744,0.00000022,0.00051760,-0.00036873,-0.
 00000310,0.00013219,-0.00002088,-0.00000004,0.00007252,0.00018700,0.00
 000054,-0.00027273,0.00007536,0.00000190,-0.00050280,0.00054286,-0.000
 00201,-0.00000867,0.00021945,-0.00000392,-0.00000298,0.00005446,-0.000
 00047,0.00000458,-0.00006085,-0.00000027,0.00000442,-0.00021996,0.0000
 0262,0.00000225,0.00015150,0.00000098,-0.00000180,-0.00019359,0.274077
 99,-0.17619670,-0.30709096,0.00058211,-0.00164594,-0.00105995,-0.00054
 359,0.00182191,-0.00034294,-0.00123972,0.01094477,0.00638899,-0.000208
 29,0.00044315,0.00041943,-0.00002983,0.00038091,-0.00005783,-0.2687377
 9,-0.17075372,-0.07421077,-0.75850814,-0.00049386,0.00052571,-0.000123
 09,-0.00021684,0.00152493,-0.00068130,-0.00161148,0.00195862,0.0015150
 2,0.00070248,-0.00023918,-0.00037565,0.00005309,-0.00014008,0.00001828
 ,0.16830511,0.08081046,-0.29440475,-0.74803712,-0.68280815,-0.00019703
 ,0.00152783,-0.00082772,-0.00097409,0.00034828,-0.00049209,-0.00647640
 ,0.01214738,0.00840436,0.00058044,-0.00089486,-0.00001383,-0.00013823,
 -0.00027447,-0.00001986,0.29881652,0.74533837,0.65522310,0.01822191,-0
 .00948221,-0.00000198,-0.00035441,-0.00039208,0.00000329,-0.00085997,-
 0.00055636,-0.00000050,0.00000130,0.00318091,0.00000061,0.00014748,0.0
 0025179,-0.00000138,0.00029820,0.00003170,0.00000023,-0.00064277,0.006
 34215,0.00718324,-0.01607539,0.01002566,-0.00573616,-0.00000193,-0.000
 10027,0.00040442,0.00000277,0.00019632,-0.00048353,-0.00000030,-0.0009
 2337,0.00051281,0.00000050,0.00014062,-0.00011340,-0.00000117,-0.00002
 516,-0.00005622,0.00000035,-0.00174886,0.00173870,0.00171804,-0.005778
 04,0.00198893,-0.00000047,0.00000221,-0.00655043,-0.00000208,-0.000002
 20,-0.00006199,0.00000010,0.00000229,0.00019651,0.00000055,-0.00000214
 ,0.00051000,0.00000141,0.00000054,-0.00010391,0.00000156,0.00000100,0.
 00001319,-0.00137719,0.00089960,0.00190900,-0.00000126,-0.00000114,0.0
 0217125,0.27407582,-0.17619578,0.30708904,0.00057909,-0.00164449,0.001
 05596,-0.00053982,0.00182354,0.00034290,-0.00124100,0.01094149,-0.0063
 8868,-0.00020795,0.00044527,-0.00041777,-0.00002767,0.00037993,0.00005
 958,-0.00325376,-0.00230302,-0.00437374,-0.00064894,-0.00174979,0.0013
 7931,-0.26872917,-0.17075276,-0.07420446,0.75850871,-0.00049601,0.0005
 2424,0.00012483,-0.00022188,0.00152366,0.00068092,-0.00161050,0.001957
 05,-0.00151383,0.00070536,-0.00023650,0.00037411,0.00006120,-0.0001364
 4,-0.00001884,-0.00230118,-0.01204156,-0.01196059,0.00633675,0.0017349
 5,-0.00089936,0.16830764,0.08081197,0.29440305,0.74803861,-0.68280977,
 0.00019855,-0.00152953,-0.00082973,0.00097870,-0.00034488,-0.00048988,
 0.00647529,-0.01215268,0.00839857,-0.00058114,0.00089490,-0.00001304,0
 .00013423,0.00027401,-0.00001513,0.00437315,0.01196052,0.01872909,-0.0
 0718127,-0.00171604,0.00190979,-0.29881700,-0.74533941,0.65522415,0.00
 021088,0.00028729,-0.00000215,-0.00030020,0.00002385,0.00000267,-0.000
 16972,0.00004630,-0.00000009,-0.00025025,-0.00024727,0.00000023,0.0001
 5512,0.00001053,-0.00000118,0.00003738,-0.00009779,0.00000069,-0.00000
 483,-0.00002503,-0.00001533,-0.00007861,-0.00003454,-0.00000043,-0.000
 00579,-0.00002872,0.00001671,0.00040589,-0.00008724,-0.00004441,-0.000
 00339,-0.00016992,0.00015623,0.00000855,-0.00002648,0.00011540,0.00000
 035,-0.00000615,-0.00006787,-0.00000112,-0.00000620,-0.00012844,-0.000
 00530,0.00018166,-0.00012487,0.00000235,-0.00000148,0.00007347,0.00008
 839,0.00005993,0.00001039,-0.00000098,-0.00000397,0.00006754,-0.000086
 17,0.00005931,-0.00006700,-0.00000312,-0.00000164,0.00015150,-0.000004
 51,-0.00000488,0.00001027,0.00000408,0.00000789,0.00011069,-0.00000006
 ,-0.00000351,0.00002539,0.00000229,0.00000097,-0.00003178,-0.00000106,
 -0.00000061,0.00006711,-0.00006919,-0.00004495,-0.00010562,0.00000124,
 0.00000093,0.00001373,0.00007044,0.00004327,-0.00010049,0.00000133,0.0
 0000197,-0.00013775,-0.00057742,0.00075868,-0.00313781,0.00000531,0.00
 000084,0.00132357,0.00019265,0.00061746,-0.00000174,-0.04846587,0.0011
 4243,-0.00009509,0.00000344,0.00572297,-0.13055312,-0.00000490,-0.0000
 1124,-0.00059593,0.00001909,-0.00000290,0.00548992,-0.00313996,-0.0214
 8396,-0.00001429,0.08090662,-0.07151529,0.00001121,1.37575701,0.001461
 63,0.00082886,-0.00001001,-0.00503626,-0.01403220,0.00000618,-0.115007
 96,0.01785872,-0.00000045,-0.00000250,-0.00258879,-0.00000128,-0.00000
 228,0.00126503,-0.00000149,0.00000192,0.01981369,0.00215585,-0.0011259
 6,0.00000288,-0.00041980,-0.00445109,-0.00000915,0.05225544,-0.0084613
 1,0.00000011,-0.03068923,-0.00125138,0.00300157,0.00001112,0.00985206,
 0.00670832,-0.00000712,0.07229483,-0.00986192,0.00000150,0.02494700,-0
 .01154669,0.00000183,0.00000715,0.00051953,0.00000425,0.00000466,-0.00
 005268,0.00000150,-0.00000554,0.00462412,-0.00000005,-0.00000351,0.001
 10399,0.00026268,-0.00024153,0.00000245,0.01084523,-0.00400910,-0.0000
 0456,-0.01770282,-0.00122070,0.00000169,-0.00084361,-0.00070644,-0.000
 00369,-0.00838649,0.00015137,0.00019939,0.00000112,-0.00969688,0.00835
 131,0.00000176,0.02419061,-0.00049465,0.00000144,-0.00043843,0.0034677
 9,-0.00000251,0.00077377,0.00160663,0.00000233,0.00000852,-0.00002855,
 -0.00001220,0.00000278,0.00298629,-0.00000323,-0.00000302,-0.00026971,
 0.00000555,0.00000168,-0.00068663,0.00000143,-0.00000239,-0.00329722,-
 0.00121611,-0.00830841,0.00001237,0.02447340,-0.11156486,-0.00002318,0
 .41600331,-0.05361463,0.00000136,-0.00573578,0.05628273,-0.00000178,-0
 .00074559,0.00908144,0.00001216,2.17437618,0.00076436,0.00007446,0.000
 00341,-0.04863882,0.04154445,-0.00000494,0.06171758,-0.00105299,0.0000
 0015,0.00505396,0.00252232,0.00000072,0.00325461,-0.01134864,0.0000022
 4,4.13488049,3.83437662,-0.00000279,-0.00001013,0.00005987,-0.00000176
 ,-0.00000345,-0.02299557,0.00000188,0.00000590,0.00058265,-0.00000137,
 0.00000312,0.00478090,0.00000180,0.00000214,-0.00123860,-0.00000264,-0
 .00000271,-1.22777717,0.00013306,0.00007299,-0.00038437,-0.00034387,0.
 00040280,0.00010615,0.00288505,-0.00000159,0.00019008,-0.00028986,-0.0
 0004828,-0.00001526,0.00013570,-0.00018178,-0.00000643,0.00105840,-0.0
 0030749,-0.00005382,-0.00000011,-0.00024297,0.00011047,0.00009042,0.00
 025269,-0.00025572,-0.00020432,-0.00124337,0.00027402,-0.00041606,0.00
 053040,-0.00051541,0.00024405,-0.00010922,0.00010835,0.00001183,-0.000
 49517,0.00028838,0.00006594,0.00001920,0.00009651,-0.00021236,-0.00026
 089,-0.00011462,0.00012951,-0.00002288,0.00007283,-0.00018669,0.000072
 02,0.00002482,0.00006084,-0.00002138,-0.00004392,-0.00010460,-0.000020
 16,-0.00001745,-0.00010225,-0.00003786,-0.00003621,0.00021189,0.000110
 91,0.00008122,-0.00112968,-0.00058384,-0.00000560,0.00047366,0.0002245
 4,0.00000646,-0.00280145,-0.00050884,-0.00000065,0.00001989,0.00128530
 ,0.00000038,-0.00014193,0.00017064,-0.00000269,-0.00141255,0.00018897,
 0.00000133,-0.00000553,-0.00011472,0.00000127,0.00121317,0.00009477,0.
 00005356,-0.00000453,-0.00012704,0.00005370,0.00000537,0.00058031,0.00
 015393,-0.00000037,0.00011117,-0.00045948,0.00000024,-0.00001317,-0.00
 004298,-0.00000233,0.00055130,-0.00006825,0.00000125,0.00000889,0.0000
 3463,0.00000164,0.00020013,-0.00010508,-0.00000040,0.00000226,0.000109
 83,-0.00000368,-0.00000146,0.00003101,0.00000007,0.00000190,0.00001025
 ,0.00000119,-0.00000141,-0.00017468,0.00000136,0.00000007,0.00000865,0
 .00000262,0.00000083,-0.00001595,0.00003723,-0.00001398,-0.00000562,0.
 00000815,0.00000354,-0.00001496,0.00013146,0.00007501,0.00038436,-0.00
 034879,0.00040479,-0.00011100,0.00288690,-0.00000113,-0.00019001,-0.00
 029014,-0.00005035,0.00001559,0.00013666,-0.00017969,0.00000827,0.0010
 6363,-0.00030773,0.00005517,-0.00000619,-0.00000980,-0.00000500,0.0000
 0837,0.00001803,-0.00004458,-0.00001208,-0.00024378,0.00011329,-0.0000
 8954,0.00025147,-0.00025633,0.00020277,-0.00124222,0.00027528,0.000415
 56,0.00053022,-0.00051857,-0.00024258,-0.00010858,0.00010939,-0.000011
 02,-0.00049358,0.00028903,-0.00006714,-0.00000889,-0.00001870,0.000081
 86,-0.00010655,0.00003856,0.00001007,0.00001070,0.00009247,0.00021178,
 0.00026446,-0.00011675,-0.00012933,0.00002102,0.00007371,0.00018772,-0
 .00007027,0.00002713,-0.00006101,0.00001737,-0.00004997,0.00010519,0.0
 0002092,-0.00001867,0.00010252,0.00003904,-0.00003087,0.00000512,-0.00
 008187,0.00005389,-0.00000995,-0.00000547,-0.00000151,-0.00020340,-0.0
 0010719,0.00007831,0.00318457,0.03022107,-0.00000526,-0.06731321,0.183
 64432,0.00000560,-1.90704368,0.18239304,-0.00000021,-0.01616531,-0.162
 61163,-0.00000007,0.01643930,-0.02386919,-0.00000233,-2.60786635,-4.15
 660728,0.00000180,-0.00356712,0.00141183,0.00020803,0.00378210,-0.0014
 2315,-0.00000044,-0.00356901,0.00141110,-0.00020836,4.58211857,-0.0026
 3153,-0.00114077,-0.00000758,0.04679979,0.08853468,0.00001844,0.051698
 07,0.00604500,0.00000049,-0.01669352,0.00720471,-0.00000215,0.00238416
 ,-0.00195357,-0.00001115,-4.02630574,-3.86661995,0.00000503,0.00004583
 ,-0.00012223,0.00009799,-0.00076242,0.00034743,-0.00000200,0.00004100,
 -0.00012396,-0.00009868,3.94542382,3.76781911,-0.00000431,-0.00000430,
 0.00142844,-0.00000552,-0.00000346,0.01371864,0.00000909,0.00000950,-0
 .02349017,-0.00000035,-0.00000393,-0.01001914,0.00000041,-0.00000084,0
 .00256798,-0.00000517,-0.00000321,1.24666728,-0.00009057,0.00019174,-0
 .00001666,0.00000353,0.00000267,0.00006512,0.00009065,-0.00019298,-0.0
 0001172,0.00000370,0.00000426,-1.23090670\\@


 ALL THINGS ARE POSSIBLE EXCEPT SKIING THROUGH A REVOLVING DOOR.
 Job cpu time:       0 days 14 hours 54 minutes 19.9 seconds.
 Elapsed time:       0 days  1 hours 58 minutes 12.4 seconds.
 File lengths (MBytes):  RWF=     71 Int=      0 D2E=      0 Chk=     42 Scr=      1
 Normal termination of Gaussian 16 at Mon May 27 17:55:33 2024.
