 Entering Gaussian System, Link 0=/home/ely/Documents/g16/g16rheticus/g16_a03/cpu/g16/g16
 Initial command:
 /home/ely/Documents/g16/g16rheticus/g16_a03/cpu/g16/l1.exe "/tmp/Gau-1315525.inp" -scrdir="/tmp/"
 Entering Link 1 = /home/ely/Documents/g16/g16rheticus/g16_a03/cpu/g16/l1.exe PID=   1315527.
  
 Copyright (c) 1988,1990,1992,1993,1995,1998,2003,2009,2016,
            Gaussian, Inc.  All Rights Reserved.
  
 This is part of the Gaussian(R) 16 program.  It is based on
 the Gaussian(R) 09 system (copyright 2009, Gaussian, Inc.),
 the Gaussian(R) 03 system (copyright 2003, Gaussian, Inc.),
 the Gaussian(R) 98 system (copyright 1998, Gaussian, Inc.),
 the Gaussian(R) 94 system (copyright 1995, Gaussian, Inc.),
 the Gaussian 92(TM) system (copyright 1992, Gaussian, Inc.),
 the Gaussian 90(TM) system (copyright 1990, Gaussian, Inc.),
 the Gaussian 88(TM) system (copyright 1988, Gaussian, Inc.),
 the Gaussian 86(TM) system (copyright 1986, Carnegie Mellon
 University), and the Gaussian 82(TM) system (copyright 1983,
 Carnegie Mellon University). Gaussian is a federally registered
 trademark of Gaussian, Inc.
  
 This software contains proprietary and confidential information,
 including trade secrets, belonging to Gaussian, Inc.
  
 This software is provided under written license and may be
 used, copied, transmitted, or stored only in accord with that
 written license.
  
 The following legend is applicable only to US Government
 contracts under FAR:
  
                    RESTRICTED RIGHTS LEGEND
  
 Use, reproduction and disclosure by the US Government is
 subject to restrictions as set forth in subparagraphs (a)
 and (c) of the Commercial Computer Software - Restricted
 Rights clause in FAR 52.227-19.
  
 Gaussian, Inc.
 340 Quinnipiac St., Bldg. 40, Wallingford CT 06492
  
  
 ---------------------------------------------------------------
 Warning -- This program may not be used in any manner that
 competes with the business of Gaussian, Inc. or will provide
 assistance to any competitor of Gaussian, Inc.  The licensee
 of this program is prohibited from giving any competitor of
 Gaussian, Inc. access to this program.  By using this program,
 the user acknowledges that Gaussian, Inc. is engaged in the
 business of creating and licensing software in the field of
 computational chemistry and represents and warrants to the
 licensee that it is not a competitor of Gaussian, Inc. and that
 it will not use this program in any manner prohibited above.
 ---------------------------------------------------------------
  

 Cite this work as:
 Gaussian 16, Revision A.03,
 M. J. Frisch, G. W. Trucks, H. B. Schlegel, G. E. Scuseria, 
 M. A. Robb, J. R. Cheeseman, G. Scalmani, V. Barone, 
 G. A. Petersson, H. Nakatsuji, X. Li, M. Caricato, A. V. Marenich, 
 J. Bloino, B. G. Janesko, R. Gomperts, B. Mennucci, H. P. Hratchian, 
 J. V. Ortiz, A. F. Izmaylov, J. L. Sonnenberg, D. Williams-Young, 
 F. Ding, F. Lipparini, F. Egidi, J. Goings, B. Peng, A. Petrone, 
 T. Henderson, D. Ranasinghe, V. G. Zakrzewski, J. Gao, N. Rega, 
 G. Zheng, W. Liang, M. Hada, M. Ehara, K. Toyota, R. Fukuda, 
 J. Hasegawa, M. Ishida, T. Nakajima, Y. Honda, O. Kitao, H. Nakai, 
 T. Vreven, K. Throssell, J. A. Montgomery, Jr., J. E. Peralta, 
 F. Ogliaro, M. J. Bearpark, J. J. Heyd, E. N. Brothers, K. N. Kudin, 
 V. N. Staroverov, T. A. Keith, R. Kobayashi, J. Normand, 
 K. Raghavachari, A. P. Rendell, J. C. Burant, S. S. Iyengar, 
 J. Tomasi, M. Cossi, J. M. Millam, M. Klene, C. Adamo, R. Cammi, 
 J. W. Ochterski, R. L. Martin, K. Morokuma, O. Farkas, 
 J. B. Foresman, and D. J. Fox, Gaussian, Inc., Wallingford CT, 2016.
 
 ******************************************
 Gaussian 16:  ES64L-G16RevA.03 25-Dec-2016
                27-May-2024 
 ******************************************
 %chk="anion.chk"
 %nproc=8
 Will use up to    8 processors via shared memory.
 %mem=4GB
 ------------------------------
 # wB97XD gen freq=(Anharmonic)
 ------------------------------
 1/10=4,30=1,38=21,80=1/1,6,3;
 2/12=2,17=6,18=5,40=1/2;
 3/5=7,11=2,25=1,30=1,71=2,74=-58,140=1/1,2,3;
 4/69=2/1;
 5/5=2,38=5,98=1/2;
 8/6=4,10=90,11=11/1;
 11/6=1,8=1,9=11,15=111,16=1/1,2,10;
 10/6=1,60=-2/2;
 6/7=2,8=2,9=2,10=2,28=1/1;
 7/10=1,25=1,71=2/1,2,3,16;
 1/38=20,80=1/6(3);
 7/8=1,25=202,44=-1,71=1,92=10/16,17;
 1/10=4,30=1,38=20,80=1/3;
 99//99;
 3/5=7,6=1,11=2,25=1,30=1,71=2,74=-58,82=7,140=1/1,2,3;
 4/5=5,16=3,69=2/1;
 5/5=2,38=5,98=1/2;
 8/6=4,10=90,11=11/1;
 11/6=1,8=1,9=11,15=111,16=1/1,2,10;
 10/6=1,60=-2/2;
 6/7=2,8=2,9=2,10=2,28=1/1;
 7/7=1,10=1,25=1,71=1/1,2,3,16;
 1/38=20,80=1/6(-8);
 7/8=1,25=202,44=-1,71=1,92=10/16,17;
 1/10=4,30=1,38=20,80=1/3;
 99//99;
 -------
 3bp PES
 -------
 Symbolic Z-matrix:
 Charge = -1 Multiplicity = 2
 C                     0.00388  -0.76298   0. 
 C                    -2.41438   0.0989    0. 
 O                    -0.57052   1.59423   0. 
 C                    -0.90488   0.43491   0. 
 O                    -2.82496  -1.02916   0. 
 O                    -3.17435   1.18473   0. 
 H                    -0.21416  -1.38039  -0.88255 
 Br                    1.87388  -0.3094    0. 
 H                    -0.21416  -1.38039   0.88255 
 H                    -2.56364   1.94686   0. 
 
 Numerical evaluation of third derivatives.
 Nuclear step= 0.010000 Angstroms, electric field step= 0.000333 atomic units, NStep=1.

 GradGradGradGradGradGradGradGradGradGradGradGradGradGradGradGradGradGrad
 Berny optimization.
 Initialization pass.
 Trust Radius=3.00D-01 FncErr=1.00D-07 GrdErr=1.00D-07 EigMax=2.50D+02 EigMin=1.00D-04
 Number of steps in this run=      2 maximum allowed number of steps=      2.
 GradGradGradGradGradGradGradGradGradGradGradGradGradGradGradGradGradGrad

                          Input orientation:                          
 ---------------------------------------------------------------------
 Center     Atomic      Atomic             Coordinates (Angstroms)
 Number     Number       Type             X           Y           Z
 ---------------------------------------------------------------------
      1          6           0        0.003875   -0.762978    0.000000
      2          6           0       -2.414376    0.098899    0.000000
      3          8           0       -0.570516    1.594229    0.000000
      4          6           0       -0.904880    0.434915    0.000000
      5          8           0       -2.824961   -1.029160    0.000000
      6          8           0       -3.174353    1.184732    0.000000
      7          1           0       -0.214165   -1.380394   -0.882550
      8         35           0        1.873884   -0.309404    0.000000
      9          1           0       -0.214165   -1.380394    0.882550
     10          1           0       -2.563643    1.946858    0.000000
 ---------------------------------------------------------------------
                    Distance matrix (angstroms):
                    1          2          3          4          5
     1  C    0.000000
     2  C    2.567249   0.000000
     3  O    2.426181   2.373991   0.000000
     4  C    1.503590   1.546442   1.206569   0.000000
     5  O    2.841332   1.200457   3.459002   2.414586   0.000000
     6  O    3.727561   1.325367   2.635841   2.390133   2.241293
     7  H    1.098926   2.794303   3.123182   2.133384   2.778222
     8  Br   1.924231   4.307654   3.098211   2.876724   4.753651
     9  H    1.098926   2.794303   3.123182   2.133384   2.778222
    10  H    3.733010   1.853977   2.024081   2.244430   2.987469
                    6          7          8          9         10
     6  O    0.000000
     7  H    4.015156   0.000000
     8  Br   5.264707   2.507162   0.000000
     9  H    4.015156   1.765100   2.507162   0.000000
    10  H    0.976628   4.167679   4.978189   4.167679   0.000000
 Stoichiometry    C3H3BrO3(1-,2)
 Framework group  CS[SG(C3HBrO3),X(H2)]
 Deg. of freedom    16
 Full point group                 CS      NOp   2
 Largest Abelian subgroup         CS      NOp   2
 Largest concise Abelian subgroup CS      NOp   2
                         Standard orientation:                         
 ---------------------------------------------------------------------
 Center     Atomic      Atomic             Coordinates (Angstroms)
 Number     Number       Type             X           Y           Z
 ---------------------------------------------------------------------
      1          6           0        0.000000    0.785581    0.000000
      2          6           0       -2.246967   -0.456155    0.000000
      3          8           0       -0.185489   -1.633499    0.000000
      4          6           0       -0.702996   -0.543547    0.000000
      5          8           0       -2.834635    0.590623    0.000000
      6          8           0       -2.821274   -1.650630    0.000000
      7          1           0       -0.315050    1.359590    0.882550
      8         35           0        1.918754    0.640501    0.000000
      9          1           0       -0.315050    1.359590   -0.882550
     10          1           0       -2.095316   -2.303920    0.000000
 ---------------------------------------------------------------------
 Rotational constants (GHZ):           5.4264129           0.7517457           0.6629947
 General basis read from cards:  (5D, 7F)
 There are   103 symmetry adapted cartesian basis functions of A'  symmetry.
 There are    41 symmetry adapted cartesian basis functions of A"  symmetry.
 There are    94 symmetry adapted basis functions of A'  symmetry.
 There are    41 symmetry adapted basis functions of A"  symmetry.
   135 basis functions,   376 primitive gaussians,   144 cartesian basis functions
    41 alpha electrons       40 beta electrons
       nuclear repulsion energy       468.6865652098 Hartrees.
 NAtoms=   10 NActive=   10 NUniq=    9 SFac= 1.23D+00 NAtFMM=   60 NAOKFM=F Big=F
 Integral buffers will be    131072 words long.
 Raffenetti 2 integral format.
 Two-electron integral symmetry is turned on.
 Nuclear repulsion after empirical dispersion term =      468.6832767196 Hartrees.
 One-electron integrals computed using PRISM.
 NBasis=   135 RedAO= T EigKep=  2.36D-03  NBF=    94    41
 NBsUse=   135 1.00D-06 EigRej= -1.00D+00 NBFU=    94    41
 ExpMin= 4.10D-02 ExpMax= 6.40D+05 ExpMxC= 6.18D+03 IAcc=3 IRadAn=         5 AccDes= 0.00D+00
 Harris functional with IExCor= 4639 and IRadAn=       5 diagonalized for initial guess.
 HarFok:  IExCor= 4639 AccDes= 0.00D+00 IRadAn=         5 IDoV= 1 UseB2=F ITyADJ=14
 ICtDFT=  3500011 ScaDFX=  1.000000  1.000000  1.000000  1.000000
 FoFCou: FMM=F IPFlag=           0 FMFlag=      100000 FMFlg1=           0
         NFxFlg=           0 DoJE=T BraDBF=F KetDBF=T FulRan=T
         wScrn=  0.000000 ICntrl=       500 IOpCl=  0 I1Cent=   200000004 NGrid=           0
         NMat0=    1 NMatS0=      1 NMatT0=    0 NMatD0=    1 NMtDS0=    0 NMtDT0=    0
 Petite list used in FoFCou.
 Initial guess orbital symmetries:
 Alpha Orbitals:
       Occupied  (A') (A') (A') (A') (A") (A') (A') (A') (A') (A')
                 (A') (A') (A') (A') (A") (A') (A') (A") (A') (A")
                 (A') (A') (A') (A') (A') (A') (A') (A') (A") (A')
                 (A') (A") (A') (A") (A') (A') (A") (A') (A") (A')
                 (A")
       Virtual   (A') (A') (A") (A') (A') (A") (A') (A') (A") (A')
                 (A') (A") (A") (A') (A') (A') (A') (A') (A') (A")
                 (A') (A') (A') (A") (A") (A') (A') (A') (A") (A')
                 (A') (A') (A") (A') (A') (A') (A") (A') (A') (A")
                 (A") (A') (A') (A") (A') (A') (A") (A") (A') (A")
                 (A') (A') (A") (A') (A') (A") (A') (A") (A') (A")
                 (A') (A') (A") (A') (A') (A") (A') (A') (A') (A')
                 (A") (A') (A') (A') (A') (A') (A') (A") (A') (A")
                 (A') (A") (A') (A") (A") (A") (A') (A") (A') (A')
                 (A') (A') (A') (A')
 Beta  Orbitals:
       Occupied  (A') (A') (A') (A') (A") (A') (A') (A') (A') (A')
                 (A') (A') (A') (A') (A") (A') (A') (A") (A') (A")
                 (A') (A') (A') (A') (A') (A') (A') (A') (A") (A')
                 (A') (A") (A') (A") (A') (A') (A") (A') (A") (A')
       Virtual   (A") (A') (A') (A") (A') (A') (A") (A') (A') (A")
                 (A') (A') (A") (A") (A') (A') (A') (A') (A') (A')
                 (A") (A') (A') (A') (A") (A") (A') (A') (A') (A")
                 (A') (A') (A') (A") (A') (A') (A') (A") (A') (A')
                 (A") (A") (A') (A') (A") (A') (A') (A") (A") (A')
                 (A") (A') (A') (A") (A') (A') (A") (A') (A") (A')
                 (A") (A') (A') (A") (A') (A') (A") (A') (A') (A')
                 (A') (A") (A') (A') (A') (A') (A') (A') (A") (A')
                 (A") (A') (A") (A') (A") (A") (A") (A') (A") (A')
                 (A') (A') (A') (A') (A')
 The electronic state of the initial guess is 2-A".
 Initial guess <Sx>= 0.0000 <Sy>= 0.0000 <Sz>= 0.5000 <S**2>= 0.7500 S= 0.5000
 Keep R1 and R2 ints in memory in symmetry-blocked form, NReq=127531751.
 Requested convergence on RMS density matrix=1.00D-08 within 128 cycles.
 Requested convergence on MAX density matrix=1.00D-06.
 Requested convergence on             energy=1.00D-06.
 No special actions if energy rises.
 SCF Done:  E(UwB97XD) =  -2915.91828966     A.U. after   17 cycles
            NFock= 17  Conv=0.48D-08     -V/T= 2.0017
 <Sx>= 0.0000 <Sy>= 0.0000 <Sz>= 0.5000 <S**2>= 0.7540 S= 0.5020
 <L.S>= 0.000000000000E+00
 Annihilation of the first spin contaminant:
 S**2 before annihilation     0.7540,   after     0.7500
 DoSCS=F DFT=T ScalE2(SS,OS)=  1.000000  1.000000
 Range of M.O.s used for correlation:     1   135
 NBasis=   135 NAE=    41 NBE=    40 NFC=     0 NFV=     0
 NROrb=    135 NOA=    41 NOB=    40 NVA=    94 NVB=    95
 Symmetrizing basis deriv contribution to polar:
 IMax=3 JMax=2 DiffMx= 0.00D+00
 G2DrvN: will do    11 centers at a time, making    1 passes.
 Calling FoFCou, ICntrl=  3107 FMM=F I1Cent=   0 AccDes= 0.00D+00.
 End of G2Drv F.D. properties file   721 does not exist.
 End of G2Drv F.D. properties file   722 does not exist.
 End of G2Drv F.D. properties file   788 does not exist.
          IDoAtm=1111111111
          Differentiating once with respect to electric field.
                with respect to dipole field.
          Differentiating once with respect to nuclear coordinates.
 Keep R1 and R2 ints in memory in symmetry-blocked form, NReq=127537821.
          There are    30 degrees of freedom in the 1st order CPHF.  IDoFFX=4 NUNeed=    30.
     30 vectors produced by pass  0 Test12= 2.55D-14 3.33D-09 XBig12= 8.51D+01 4.27D+00.
 AX will form    30 AO Fock derivatives at one time.
     30 vectors produced by pass  1 Test12= 2.55D-14 3.33D-09 XBig12= 8.61D+00 5.06D-01.
     30 vectors produced by pass  2 Test12= 2.55D-14 3.33D-09 XBig12= 3.39D-01 1.46D-01.
     30 vectors produced by pass  3 Test12= 2.55D-14 3.33D-09 XBig12= 1.82D-02 2.54D-02.
     30 vectors produced by pass  4 Test12= 2.55D-14 3.33D-09 XBig12= 4.18D-04 3.63D-03.
     30 vectors produced by pass  5 Test12= 2.55D-14 3.33D-09 XBig12= 3.86D-06 3.76D-04.
     30 vectors produced by pass  6 Test12= 2.55D-14 3.33D-09 XBig12= 3.87D-08 3.64D-05.
     25 vectors produced by pass  7 Test12= 2.55D-14 3.33D-09 XBig12= 4.38D-10 3.04D-06.
      9 vectors produced by pass  8 Test12= 2.55D-14 3.33D-09 XBig12= 4.00D-12 2.93D-07.
      3 vectors produced by pass  9 Test12= 2.55D-14 3.33D-09 XBig12= 3.41D-14 1.90D-08.
 InvSVY:  IOpt=1 It=  1 EMax= 4.44D-15
 Solved reduced A of dimension   247 with    30 vectors.
 Isotropic polarizability for W=    0.000000       67.49 Bohr**3.
 End of Minotr F.D. properties file   721 does not exist.
 End of Minotr F.D. properties file   722 does not exist.
 End of Minotr F.D. properties file   788 does not exist.

 **********************************************************************

            Population analysis using the SCF density.

 **********************************************************************

 Orbital symmetries:
 Alpha Orbitals:
       Occupied  (A') (A') (A') (A") (A') (A') (A') (A') (A') (A')
                 (A') (A') (A') (A") (A') (A') (A") (A') (A") (A')
                 (A') (A') (A') (A') (A') (A') (A') (A') (A") (A')
                 (A") (A') (A') (A') (A") (A") (A') (A") (A') (A')
                 (A")
       Virtual   (A') (A') (A") (A') (A') (A") (A') (A') (A") (A')
                 (A") (A') (A") (A') (A') (A') (A') (A') (A') (A")
                 (A') (A') (A') (A") (A") (A') (A") (A') (A') (A')
                 (A') (A") (A') (A') (A') (A') (A") (A') (A") (A')
                 (A') (A") (A') (A') (A") (A') (A") (A") (A') (A")
                 (A') (A') (A") (A') (A") (A') (A') (A") (A') (A")
                 (A') (A") (A') (A') (A') (A") (A') (A') (A') (A')
                 (A") (A') (A') (A') (A') (A') (A') (A") (A') (A")
                 (A") (A') (A') (A") (A") (A") (A') (A") (A') (A')
                 (A') (A') (A') (A')
 Beta  Orbitals:
       Occupied  (A') (A') (A') (A") (A') (A') (A') (A') (A') (A')
                 (A') (A') (A') (A") (A') (A') (A") (A') (A") (A')
                 (A') (A') (A') (A') (A') (A') (A') (A') (A") (A')
                 (A") (A') (A') (A') (A") (A') (A") (A") (A') (A')
       Virtual   (A') (A') (A") (A") (A') (A') (A') (A") (A') (A")
                 (A') (A") (A') (A") (A') (A') (A') (A') (A') (A')
                 (A') (A") (A') (A') (A") (A") (A') (A') (A") (A')
                 (A') (A') (A") (A') (A') (A') (A') (A") (A') (A")
                 (A') (A') (A") (A') (A') (A") (A') (A") (A") (A')
                 (A") (A') (A') (A') (A") (A") (A') (A') (A") (A')
                 (A") (A') (A") (A') (A') (A') (A") (A') (A') (A')
                 (A') (A") (A') (A') (A') (A') (A') (A') (A") (A')
                 (A") (A') (A") (A') (A") (A") (A") (A') (A") (A')
                 (A') (A') (A') (A') (A')
 The electronic state is 2-A".
 Alpha  occ. eigenvalues -- -483.00434 -62.55635 -56.34816 -56.34521 -56.34512
 Alpha  occ. eigenvalues --  -19.11087 -19.03632 -19.03244 -10.20686 -10.18923
 Alpha  occ. eigenvalues --  -10.14606  -8.68344  -6.50460  -6.49322  -6.49283
 Alpha  occ. eigenvalues --   -2.60449  -2.60120  -2.60090  -2.59172  -2.59172
 Alpha  occ. eigenvalues --   -1.01424  -0.93909  -0.92394  -0.76102  -0.63898
 Alpha  occ. eigenvalues --   -0.53283  -0.48938  -0.41596  -0.38971  -0.35027
 Alpha  occ. eigenvalues --   -0.34156  -0.33042  -0.31859  -0.27108  -0.26826
 Alpha  occ. eigenvalues --   -0.22139  -0.21594  -0.21368  -0.20070  -0.12273
 Alpha  occ. eigenvalues --   -0.00079
 Alpha virt. eigenvalues --    0.19522   0.23541   0.24058   0.27127   0.27967
 Alpha virt. eigenvalues --    0.32449   0.34196   0.37180   0.38622   0.44283
 Alpha virt. eigenvalues --    0.48722   0.48948   0.49046   0.53365   0.56149
 Alpha virt. eigenvalues --    0.58993   0.61935   0.65367   0.70151   0.75148
 Alpha virt. eigenvalues --    0.75498   0.76556   0.80934   0.82505   0.86054
 Alpha virt. eigenvalues --    0.86482   0.87938   0.88006   0.89999   0.91885
 Alpha virt. eigenvalues --    0.93132   0.98759   0.99000   1.02237   1.07129
 Alpha virt. eigenvalues --    1.11100   1.18259   1.19922   1.20896   1.21316
 Alpha virt. eigenvalues --    1.21818   1.21987   1.25590   1.25895   1.27558
 Alpha virt. eigenvalues --    1.27810   1.30304   1.32482   1.35701   1.38918
 Alpha virt. eigenvalues --    1.40308   1.44631   1.49645   1.50099   1.61268
 Alpha virt. eigenvalues --    1.63456   1.67972   1.69265   1.81594   1.81751
 Alpha virt. eigenvalues --    1.88169   1.90747   1.91688   1.93562   1.95258
 Alpha virt. eigenvalues --    2.04384   2.05947   2.15859   2.19138   2.23869
 Alpha virt. eigenvalues --    2.25388   2.25646   2.37985   2.38923   2.45189
 Alpha virt. eigenvalues --    2.50955   2.67479   2.69727   2.77448   2.90196
 Alpha virt. eigenvalues --    2.98727   2.98732   3.03144   3.09162   3.20677
 Alpha virt. eigenvalues --    3.35954   3.38063   3.47640   3.52144   3.66306
 Alpha virt. eigenvalues --    3.69064   3.79334   3.84011   4.00101
  Beta  occ. eigenvalues -- -483.00435 -62.55635 -56.34816 -56.34521 -56.34512
  Beta  occ. eigenvalues --  -19.11006 -19.03261 -19.02417 -10.20550 -10.18973
  Beta  occ. eigenvalues --  -10.14127  -8.68344  -6.50460  -6.49321  -6.49284
  Beta  occ. eigenvalues --   -2.60449  -2.60120  -2.60090  -2.59172  -2.59172
  Beta  occ. eigenvalues --   -1.01019  -0.92301  -0.91619  -0.75997  -0.63234
  Beta  occ. eigenvalues --   -0.52271  -0.48288  -0.40912  -0.37961  -0.34343
  Beta  occ. eigenvalues --   -0.32932  -0.32871  -0.31037  -0.26678  -0.22514
  Beta  occ. eigenvalues --   -0.21482  -0.21305  -0.19634  -0.19408  -0.11436
  Beta virt. eigenvalues --    0.19524   0.23536   0.23860   0.24958   0.27147
  Beta virt. eigenvalues --    0.27975   0.34291   0.34629   0.37184   0.41083
  Beta virt. eigenvalues --    0.44729   0.48753   0.49065   0.49148   0.53913
  Beta virt. eigenvalues --    0.56595   0.59490   0.62559   0.65572   0.70400
  Beta virt. eigenvalues --    0.75817   0.76170   0.76816   0.81098   0.83186
  Beta virt. eigenvalues --    0.86615   0.86640   0.88189   0.88224   0.90104
  Beta virt. eigenvalues --    0.92193   0.93280   0.99408   0.99900   1.02509
  Beta virt. eigenvalues --    1.07441   1.11494   1.18675   1.20047   1.21101
  Beta virt. eigenvalues --    1.21403   1.22022   1.22314   1.25618   1.26161
  Beta virt. eigenvalues --    1.28084   1.28092   1.32201   1.33805   1.35999
  Beta virt. eigenvalues --    1.40427   1.40435   1.44969   1.50393   1.50675
  Beta virt. eigenvalues --    1.61545   1.63741   1.68711   1.70452   1.82172
  Beta virt. eigenvalues --    1.82913   1.88386   1.91272   1.91957   1.94050
  Beta virt. eigenvalues --    1.95576   2.04984   2.06296   2.16294   2.19477
  Beta virt. eigenvalues --    2.24081   2.26035   2.26662   2.38387   2.39159
  Beta virt. eigenvalues --    2.45514   2.51578   2.67728   2.69944   2.78114
  Beta virt. eigenvalues --    2.91309   2.99957   3.01191   3.05675   3.09689
  Beta virt. eigenvalues --    3.21370   3.38115   3.38428   3.49159   3.52497
  Beta virt. eigenvalues --    3.66666   3.69765   3.80171   3.84719   4.00237
          Condensed to atoms (all electrons):
               1          2          3          4          5          6
     1  C    5.164100  -0.076808  -0.104405   0.179462   0.029418   0.006283
     2  C   -0.076808   4.601206  -0.075127   0.339861   0.747344   0.423080
     3  O   -0.104405  -0.075127   7.829635   0.598489   0.001784  -0.005768
     4  C    0.179462   0.339861   0.598489   5.364888  -0.135000  -0.110895
     5  O    0.029418   0.747344   0.001784  -0.135000   7.732727  -0.046487
     6  O    0.006283   0.423080  -0.005768  -0.110895  -0.046487   7.601627
     7  H    0.374876  -0.006126   0.001992  -0.033849   0.008781   0.000297
     8  Br   0.156665   0.016882   0.052089  -0.041046  -0.004161  -0.001657
     9  H    0.374876  -0.006126   0.001992  -0.033849   0.008781   0.000297
    10  H    0.005727  -0.062589   0.054067  -0.012316   0.004254   0.346987
               7          8          9         10
     1  C    0.374876   0.156665   0.374876   0.005727
     2  C   -0.006126   0.016882  -0.006126  -0.062589
     3  O    0.001992   0.052089   0.001992   0.054067
     4  C   -0.033849  -0.041046  -0.033849  -0.012316
     5  O    0.008781  -0.004161   0.008781   0.004254
     6  O    0.000297  -0.001657   0.000297   0.346987
     7  H    0.681142  -0.036483  -0.052344  -0.000153
     8  Br  -0.036483  35.112875  -0.036483  -0.002138
     9  H   -0.052344  -0.036483   0.681142  -0.000153
    10  H   -0.000153  -0.002138  -0.000153   0.530017
          Atomic-Atomic Spin Densities.
               1          2          3          4          5          6
     1  C   -0.048983   0.000748   0.000739   0.019444  -0.000159   0.000051
     2  C    0.000748   0.127494  -0.011912   0.097502  -0.063107  -0.024073
     3  O    0.000739  -0.011912   0.502245  -0.176177   0.000233   0.002345
     4  C    0.019444   0.097502  -0.176177   0.515915  -0.013854  -0.009912
     5  O   -0.000159  -0.063107   0.000233  -0.013854   0.214628   0.004036
     6  O    0.000051  -0.024073   0.002345  -0.009912   0.004036   0.051090
     7  H   -0.002967  -0.003905   0.001646  -0.018729   0.001830   0.000081
     8  Br   0.006433  -0.001245   0.000031  -0.008163   0.000302   0.000071
     9  H   -0.002967  -0.003905   0.001646  -0.018729   0.001830   0.000081
    10  H   -0.000262   0.001419  -0.001492  -0.000851  -0.000030   0.001359
               7          8          9         10
     1  C   -0.002967   0.006433  -0.002967  -0.000262
     2  C   -0.003905  -0.001245  -0.003905   0.001419
     3  O    0.001646   0.000031   0.001646  -0.001492
     4  C   -0.018729  -0.008163  -0.018729  -0.000851
     5  O    0.001830   0.000302   0.001830  -0.000030
     6  O    0.000081   0.000071   0.000081   0.001359
     7  H    0.058472   0.002341  -0.019457  -0.000000
     8  Br   0.002341  -0.005257   0.002341   0.000118
     9  H   -0.019457   0.002341   0.058472  -0.000000
    10  H   -0.000000   0.000118  -0.000000  -0.003530
 Mulliken charges and spin densities:
               1          2
     1  C   -0.110193  -0.027923
     2  C    0.098403   0.119015
     3  O   -0.354748   0.319304
     4  C   -0.115745   0.386447
     5  O   -0.347440   0.145707
     6  O   -0.213763   0.025127
     7  H    0.061866   0.019311
     8  Br  -0.216544  -0.003028
     9  H    0.061866   0.019311
    10  H    0.136297  -0.003270
 Sum of Mulliken charges =  -1.00000   1.00000
 Mulliken charges and spin densities with hydrogens summed into heavy atoms:
               1          2
     1  C    0.013540   0.010698
     2  C    0.098403   0.119015
     3  O   -0.354748   0.319304
     4  C   -0.115745   0.386447
     5  O   -0.347440   0.145707
     6  O   -0.077466   0.021858
     8  Br  -0.216544  -0.003028
 APT charges:
               1
     1  C    0.377756
     2  C    1.212670
     3  O   -0.791148
     4  C    0.151183
     5  O   -0.934780
     6  O   -0.845332
     7  H   -0.077407
     8  Br  -0.332306
     9  H   -0.077407
    10  H    0.316772
 Sum of APT charges =  -1.00000
 APT charges with hydrogens summed into heavy atoms:
               1
     1  C    0.222941
     2  C    1.212670
     3  O   -0.791148
     4  C    0.151183
     5  O   -0.934780
     6  O   -0.528560
     8  Br  -0.332306
 Electronic spatial extent (au):  <R**2>=           1477.8010
 Charge=             -1.0000 electrons
 Dipole moment (field-independent basis, Debye):
    X=              4.2735    Y=              1.4020    Z=              0.0000  Tot=              4.4976
 Quadrupole moment (field-independent basis, Debye-Ang):
   XX=            -83.4804   YY=            -60.8666   ZZ=            -54.0750
   XY=             -0.5721   XZ=             -0.0000   YZ=              0.0000
 Traceless Quadrupole moment (field-independent basis, Debye-Ang):
   XX=            -17.3397   YY=              5.2740   ZZ=             12.0657
   XY=             -0.5721   XZ=             -0.0000   YZ=              0.0000
 Octapole moment (field-independent basis, Debye-Ang**2):
  XXX=            111.7105  YYY=              8.5099  ZZZ=             -0.0000  XYY=             11.7151
  XXY=             -3.2741  XXZ=              0.0000  XZZ=             10.2215  YZZ=              3.4641
  YYZ=              0.0000  XYZ=             -0.0000
 Hexadecapole moment (field-independent basis, Debye-Ang**3):
 XXXX=          -1453.5761 YYYY=           -362.7017 ZZZZ=            -64.8657 XXXY=           -175.5575
 XXXZ=              0.0000 YYYX=           -148.4080 YYYZ=              0.0000 ZZZX=             -0.0000
 ZZZY=             -0.0000 XXYY=           -295.2713 XXZZ=           -214.8555 YYZZ=            -71.5651
 XXYZ=              0.0000 YYXZ=             -0.0000 ZZXY=            -53.4201
 N-N= 4.686832767196D+02 E-N=-7.907714998565D+03  KE= 2.910850323847D+03
 Symmetry A'   KE= 2.519791684016D+03
 Symmetry A"   KE= 3.910586398309D+02
 Symmetry A'   SP=-4.860390925452D-14
 Symmetry A"   SP= 1.000000000000D+00
  Exact polarizability:  94.171   5.580  65.249  -0.000  -0.000  43.041
 Approx polarizability:  92.018  -4.550  76.316  -0.000   0.000  50.754
                          Isotropic Fermi Contact Couplings
        Atom                 a.u.       MegaHertz       Gauss      10(-4) cm-1
     1  C(13)             -0.01853     -20.82700      -7.43159      -6.94714
     2  C(13)             -0.00419      -4.70679      -1.67950      -1.57002
     3  O(17)              0.07982     -48.38642     -17.26548     -16.13997
     4  C(13)              0.03227      36.27468      12.94371      12.09993
     5  O(17)              0.03385     -20.51671      -7.32087      -6.84364
     6  O(17)              0.00630      -3.81752      -1.36218      -1.27339
     7  H(1)               0.00930      41.58680      14.83920      13.87186
     8  Br(79)            -0.00177      -1.98469      -0.70819      -0.66202
     9  H(1)               0.00930      41.58680      14.83920      13.87186
    10  H(1)              -0.00055      -2.43611      -0.86927      -0.81260
 --------------------------------------------------------
       Center         ----  Spin Dipole Couplings  ----
                      3XX-RR        3YY-RR        3ZZ-RR
 --------------------------------------------------------
     1   Atom        0.004600      0.002623     -0.007223
     2   Atom       -0.074218     -0.084591      0.158809
     3   Atom       -0.669427     -0.694428      1.363856
     4   Atom       -0.232540     -0.220257      0.452797
     5   Atom       -0.312408     -0.312495      0.624903
     6   Atom       -0.076961     -0.082742      0.159703
     7   Atom       -0.002741      0.008387     -0.005646
     8   Atom       -0.000692     -0.007208      0.007900
     9   Atom       -0.002741      0.008387     -0.005646
    10   Atom        0.006068      0.005055     -0.011123
 --------------------------------------------------------
                        XY            XZ            YZ
 --------------------------------------------------------
     1   Atom        0.011330     -0.000000      0.000000
     2   Atom       -0.009601     -0.000000     -0.000000
     3   Atom        0.014189     -0.000000      0.000000
     4   Atom       -0.013958     -0.000000     -0.000000
     5   Atom        0.000125     -0.000000     -0.000000
     6   Atom        0.000397      0.000000      0.000000
     7   Atom        0.006300      0.002281      0.004476
     8   Atom       -0.004675     -0.000000      0.000000
     9   Atom        0.006300     -0.002281     -0.004476
    10   Atom        0.004413      0.000000      0.000000
 --------------------------------------------------------


 ---------------------------------------------------------------------------------
              Anisotropic Spin Dipole Couplings in Principal Axis System
 ---------------------------------------------------------------------------------

       Atom             a.u.   MegaHertz   Gauss  10(-4) cm-1        Axes

              Baa    -0.0078    -1.042    -0.372    -0.347 -0.6757  0.7372 -0.0000
     1 C(13)  Bbb    -0.0072    -0.969    -0.346    -0.323 -0.0000  0.0000  1.0000
              Bcc     0.0150     2.011     0.717     0.671  0.7372  0.6757  0.0000
 
              Baa    -0.0903   -12.120    -4.325    -4.043  0.5122  0.8589  0.0000
     2 C(13)  Bbb    -0.0685    -9.191    -3.280    -3.066  0.8589 -0.5122  0.0000
              Bcc     0.1588    21.311     7.604     7.108 -0.0000 -0.0000  1.0000
 
              Baa    -0.7008    50.712    18.095    16.916 -0.4117  0.9113 -0.0000
     3 O(17)  Bbb    -0.6630    47.976    17.119    16.003  0.9113  0.4117 -0.0000
              Bcc     1.3639   -98.688   -35.214   -32.919 -0.0000  0.0000  1.0000
 
              Baa    -0.2416   -32.427   -11.571   -10.816  0.8375  0.5465  0.0000
     4 C(13)  Bbb    -0.2111   -28.334   -10.110    -9.451 -0.5465  0.8375  0.0000
              Bcc     0.4528    60.761    21.681    20.268 -0.0000 -0.0000  1.0000
 
              Baa    -0.3126    22.618     8.071     7.545 -0.5798  0.8148 -0.0000
     5 O(17)  Bbb    -0.3123    22.599     8.064     7.538  0.8148  0.5798  0.0000
              Bcc     0.6249   -45.218   -16.135   -15.083 -0.0000 -0.0000  1.0000
 
              Baa    -0.0828     5.989     2.137     1.998 -0.0681  0.9977 -0.0000
     6 O(17)  Bbb    -0.0769     5.567     1.986     1.857  0.9977  0.0681 -0.0000
              Bcc     0.1597   -11.556    -4.123    -3.855  0.0000  0.0000  1.0000
 
              Baa    -0.0071    -3.768    -1.344    -1.257 -0.2477 -0.1751  0.9529
     7 H(1)   Bbb    -0.0055    -2.959    -1.056    -0.987  0.8826 -0.4464  0.1474
              Bcc     0.0126     6.727     2.400     2.244  0.3996  0.8775  0.2651
 
              Baa    -0.0096    -1.294    -0.462    -0.432  0.4628  0.8865 -0.0000
     8 Br(79) Bbb     0.0017     0.235     0.084     0.078  0.8865 -0.4628  0.0000
              Bcc     0.0079     1.060     0.378     0.353 -0.0000  0.0000  1.0000
 
              Baa    -0.0071    -3.768    -1.344    -1.257  0.2477  0.1751  0.9529
     9 H(1)   Bbb    -0.0055    -2.959    -1.056    -0.987  0.8826 -0.4464 -0.1474
              Bcc     0.0126     6.727     2.400     2.244  0.3996  0.8775 -0.2651
 
              Baa    -0.0111    -5.935    -2.118    -1.980  0.0000  0.0000  1.0000
    10 H(1)   Bbb     0.0011     0.597     0.213     0.199 -0.6656  0.7463 -0.0000
              Bcc     0.0100     5.338     1.905     1.780  0.7463  0.6656 -0.0000
 

 ---------------------------------------------------------------------------------

 Calling FoFJK, ICntrl=    100127 FMM=F ISym2X=1 I1Cent= 0 IOpClX= 1 NMat=1 NMatS=1 NMatT=0.
 Full mass-weighted force constant matrix:
 Low frequencies --- -323.0652 -177.4984 -100.7804  -88.0509  -24.2209   -0.0112
 Low frequencies ---    0.0100    0.0174   70.1408
 ******    2 imaginary frequencies (negative Signs) ****** 
 Diagonal vibrational polarizability:
       89.6679297      40.6835676      25.2802883
 Harmonic frequencies (cm**-1), IR intensities (KM/Mole), Raman scattering
 activities (A**4/AMU), depolarization ratios for plane and unpolarized
 incident light, reduced masses (AMU), force constants (mDyne/A),
 and normal coordinates:
                      1                      2                      3
                     A"                     A"                     A'
 Frequencies --   -297.7035              -133.6247                58.6077
 Red. masses --      4.2335                 3.5927                 8.6984
 Frc consts  --      0.2211                 0.0378                 0.0176
 IR Inten    --      0.1320                 8.6756                 9.5554
  Atom  AN      X      Y      Z        X      Y      Z        X      Y      Z
     1   6    -0.00   0.00  -0.14    -0.00   0.00   0.34    -0.04  -0.21   0.00
     2   6     0.00  -0.00   0.16    -0.00  -0.00   0.02     0.09  -0.07   0.00
     3   8     0.00   0.00  -0.27     0.00   0.00  -0.05     0.02  -0.27   0.00
     4   6    -0.00   0.00   0.36    -0.00  -0.00   0.17     0.04  -0.27   0.00
     5   8     0.00  -0.00  -0.09    -0.00  -0.00  -0.23     0.41   0.13   0.00
     6   8     0.00  -0.00   0.03    -0.00  -0.00   0.03    -0.30   0.11  -0.00
     7   1    -0.14   0.38  -0.45     0.23  -0.20   0.55    -0.13  -0.25  -0.01
     8  35    -0.00  -0.00   0.02     0.00  -0.00  -0.04    -0.03   0.10  -0.00
     9   1     0.14  -0.38  -0.45    -0.23   0.20   0.55    -0.13  -0.25   0.01
    10   1    -0.00  -0.00  -0.01    -0.00  -0.00   0.06    -0.56  -0.16  -0.00
                      4                      5                      6
                     A"                     A'                     A'
 Frequencies --     83.0962               145.5757               274.7120
 Red. masses --     10.7787                15.8367                 7.6024
 Frc consts  --      0.0439                 0.1977                 0.3380
 IR Inten    --      1.6994                24.7638                 9.6876
  Atom  AN      X      Y      Z        X      Y      Z        X      Y      Z
     1   6    -0.00  -0.00  -0.05    -0.13   0.22  -0.00     0.01  -0.02   0.00
     2   6     0.00  -0.00  -0.13     0.19  -0.04   0.00     0.17   0.11   0.00
     3   8    -0.00  -0.00  -0.37     0.62   0.36   0.00    -0.23  -0.15   0.00
     4   6     0.00  -0.00  -0.42     0.09   0.08  -0.00     0.09   0.02   0.00
     5   8     0.00   0.00  -0.15     0.31   0.05   0.00     0.20   0.12  -0.00
     6   8    -0.00   0.00   0.57    -0.03   0.04   0.00     0.43   0.03  -0.00
     7   1    -0.04  -0.27   0.12    -0.13   0.19   0.01    -0.06  -0.04  -0.01
     8  35    -0.00   0.00   0.07    -0.20  -0.13   0.00    -0.13  -0.02  -0.00
     9   1     0.04   0.27   0.12    -0.13   0.19  -0.01    -0.06  -0.04   0.01
    10   1    -0.00  -0.00   0.38    -0.27  -0.18  -0.00     0.72   0.31   0.00
                      7                      8                      9
                     A'                     A"                     A'
 Frequencies --    529.5007               570.3455               616.4793
 Red. masses --     11.8046                 9.3678                 6.0425
 Frc consts  --      1.9500                 1.7954                 1.3530
 IR Inten    --      1.9818                16.6747                 5.0382
  Atom  AN      X      Y      Z        X      Y      Z        X      Y      Z
     1   6    -0.23   0.24  -0.00     0.00   0.00  -0.06    -0.17  -0.30  -0.00
     2   6    -0.08  -0.25  -0.00     0.00  -0.00   0.74    -0.25   0.09   0.00
     3   8    -0.30   0.21   0.00    -0.00  -0.00   0.01     0.20   0.07  -0.00
     4   6    -0.34   0.16   0.00     0.00   0.00  -0.34    -0.21  -0.14  -0.00
     5   8     0.44   0.05   0.00     0.00  -0.00  -0.20    -0.03   0.27  -0.00
     6   8    -0.04  -0.35   0.00    -0.00  -0.00  -0.15     0.14  -0.10  -0.00
     7   1    -0.10   0.28   0.02    -0.11  -0.25   0.08    -0.17  -0.29  -0.00
     8  35     0.08  -0.01   0.00     0.00  -0.00   0.01     0.03   0.01   0.00
     9   1    -0.10   0.28  -0.02     0.11   0.25   0.08    -0.17  -0.29   0.00
    10   1     0.14  -0.17  -0.00    -0.00  -0.00   0.33     0.53   0.30   0.00
                     10                     11                     12
                     A"                     A'                     A'
 Frequencies --    712.2986               721.1256               798.9536
 Red. masses --      1.0796                 5.4122                 7.9142
 Frc consts  --      0.3227                 1.6582                 2.9765
 IR Inten    --     74.2757                39.6898                24.5446
  Atom  AN      X      Y      Z        X      Y      Z        X      Y      Z
     1   6    -0.00   0.00   0.02     0.50  -0.16   0.00     0.03   0.40   0.00
     2   6    -0.00  -0.00  -0.04    -0.12  -0.04  -0.00    -0.33   0.01   0.00
     3   8     0.00  -0.00  -0.02    -0.02   0.11  -0.00     0.09  -0.27   0.00
     4   6     0.00  -0.00   0.00    -0.03   0.09   0.00     0.33  -0.07  -0.00
     5   8     0.00  -0.00   0.02     0.06   0.08   0.00    -0.02   0.22  -0.00
     6   8    -0.00   0.00  -0.05    -0.07  -0.17  -0.00    -0.08  -0.22   0.00
     7   1    -0.04   0.04  -0.02     0.56  -0.09  -0.04    -0.02   0.36   0.02
     8  35     0.00  -0.00  -0.00    -0.06   0.02  -0.00    -0.01  -0.01  -0.00
     9   1     0.04  -0.04  -0.02     0.56  -0.09   0.04    -0.02   0.36  -0.02
    10   1    -0.00   0.00   0.99     0.06  -0.03   0.00     0.36   0.22  -0.00
                     13                     14                     15
                     A"                     A'                     A"
 Frequencies --    810.9168              1068.1058              1072.8888
 Red. masses --      1.4968                 3.2070                 1.0543
 Frc consts  --      0.5799                 2.1557                 0.7151
 IR Inten    --      4.1253                38.8814                 0.3498
  Atom  AN      X      Y      Z        X      Y      Z        X      Y      Z
     1   6    -0.00  -0.00   0.19    -0.07  -0.16   0.00     0.00   0.00   0.03
     2   6     0.00  -0.00   0.00     0.03   0.04  -0.00     0.00  -0.00   0.01
     3   8    -0.00   0.00   0.01    -0.07   0.09  -0.00     0.00  -0.00  -0.00
     4   6    -0.00   0.00  -0.08     0.29   0.20  -0.00    -0.00  -0.00  -0.06
     5   8     0.00  -0.00  -0.01    -0.01   0.05   0.00    -0.00  -0.00  -0.00
     6   8     0.00   0.00   0.01    -0.07  -0.11   0.00     0.00   0.00  -0.00
     7   1    -0.46   0.44  -0.25    -0.52  -0.35  -0.01     0.56   0.42  -0.07
     8  35    -0.00   0.00  -0.01     0.01  -0.00   0.00    -0.00   0.00   0.01
     9   1     0.46  -0.44  -0.25    -0.52  -0.35   0.01    -0.56  -0.42  -0.07
    10   1    -0.00  -0.00  -0.11    -0.10  -0.14  -0.00    -0.00  -0.00   0.00
                     16                     17                     18
                     A'                     A'                     A'
 Frequencies --   1157.6799              1231.5031              1416.8690
 Red. masses --      2.2501                 1.4999                 1.5469
 Frc consts  --      1.7768                 1.3402                 1.8296
 IR Inten    --     99.8309                81.4099               308.7793
  Atom  AN      X      Y      Z        X      Y      Z        X      Y      Z
     1   6    -0.05  -0.08  -0.00    -0.15  -0.09   0.00    -0.03   0.06   0.00
     2   6    -0.15  -0.12   0.00     0.02   0.04  -0.00     0.13   0.08  -0.00
     3   8     0.00   0.02  -0.00    -0.01  -0.01   0.00     0.00   0.00   0.00
     4   6     0.09   0.09  -0.00     0.08   0.04   0.00    -0.02  -0.02  -0.00
     5   8     0.08  -0.12  -0.00    -0.01   0.03   0.00    -0.02  -0.01   0.00
     6   8    -0.04   0.12  -0.00     0.00  -0.04   0.00    -0.09  -0.07   0.00
     7   1     0.14   0.06  -0.01     0.61   0.26   0.03     0.22  -0.39   0.34
     8  35    -0.00   0.00   0.00    -0.00   0.00  -0.00    -0.00   0.00  -0.00
     9   1     0.14   0.06   0.01     0.61   0.26  -0.03     0.22  -0.39  -0.34
    10   1     0.59   0.71  -0.00    -0.18  -0.21  -0.00     0.39   0.41  -0.00
                     19                     20                     21
                     A'                     A'                     A'
 Frequencies --   1430.1580              1902.7437              1959.8912
 Red. masses --      1.4782                10.7021                12.3507
 Frc consts  --      1.7814                22.8287                27.9514
 IR Inten    --    299.3868               489.1348                92.1012
  Atom  AN      X      Y      Z        X      Y      Z        X      Y      Z
     1   6     0.02  -0.06   0.00     0.00  -0.03   0.00     0.00   0.03  -0.00
     2   6     0.12   0.08  -0.00    -0.16   0.42  -0.00    -0.30   0.59   0.00
     3   8     0.01  -0.01   0.00     0.19  -0.36   0.00    -0.13   0.27  -0.00
     4   6    -0.03  -0.02  -0.00    -0.26   0.53   0.00     0.18  -0.45   0.00
     5   8    -0.02  -0.01   0.00     0.15  -0.23  -0.00     0.21  -0.34  -0.00
     6   8    -0.08  -0.07   0.00    -0.00  -0.07   0.00     0.03  -0.06  -0.00
     7   1    -0.17   0.46  -0.37    -0.11  -0.12   0.05    -0.02   0.04   0.02
     8  35     0.00  -0.00   0.00     0.00   0.00  -0.00    -0.00   0.00   0.00
     9   1    -0.17   0.46   0.37    -0.11  -0.12  -0.05    -0.02   0.04  -0.02
    10   1     0.32   0.33  -0.00    -0.24  -0.30  -0.00    -0.19  -0.14   0.00
                     22                     23                     24
                     A'                     A"                     A'
 Frequencies --   3065.5712              3101.5203              3652.6858
 Red. masses --      1.0579                 1.1092                 1.0631
 Frc consts  --      5.8574                 6.2864                 8.3571
 IR Inten    --     41.5100                16.1787                52.7306
  Atom  AN      X      Y      Z        X      Y      Z        X      Y      Z
     1   6     0.03  -0.06  -0.00    -0.00   0.00  -0.10    -0.00  -0.00  -0.00
     2   6     0.00  -0.00  -0.00    -0.00   0.00   0.00     0.00  -0.01  -0.00
     3   8     0.00   0.00   0.00    -0.00   0.00  -0.00     0.00  -0.00   0.00
     4   6    -0.00  -0.00   0.00     0.00  -0.00   0.00    -0.00   0.00  -0.00
     5   8    -0.00   0.00   0.00     0.00  -0.00  -0.00     0.00   0.00   0.00
     6   8    -0.00  -0.00   0.00    -0.00   0.00  -0.00     0.04  -0.04  -0.00
     7   1    -0.18   0.35   0.59    -0.19   0.38   0.57    -0.00   0.00   0.00
     8  35    -0.00   0.00  -0.00     0.00  -0.00   0.00     0.00   0.00   0.00
     9   1    -0.18   0.35  -0.59     0.19  -0.38   0.57    -0.00   0.00  -0.00
    10   1     0.00  -0.00  -0.00    -0.00  -0.00  -0.00    -0.70   0.72   0.00

 -------------------
 - Thermochemistry -
 -------------------
 Temperature   298.150 Kelvin.  Pressure   1.00000 Atm.
 Atom     1 has atomic number  6 and mass  12.00000
 Atom     2 has atomic number  6 and mass  12.00000
 Atom     3 has atomic number  8 and mass  15.99491
 Atom     4 has atomic number  6 and mass  12.00000
 Atom     5 has atomic number  8 and mass  15.99491
 Atom     6 has atomic number  8 and mass  15.99491
 Atom     7 has atomic number  1 and mass   1.00783
 Atom     8 has atomic number 35 and mass  78.91834
 Atom     9 has atomic number  1 and mass   1.00783
 Atom    10 has atomic number  1 and mass   1.00783
 Molecular mass:   165.92656 amu.
 Principal axes and moments of inertia in atomic units:
                           1         2         3
     Eigenvalues --   332.584572400.733542722.10513
           X            0.95133  -0.30818   0.00000
           Y            0.30818   0.95133   0.00000
           Z            0.00000  -0.00000   1.00000
 This molecule is an asymmetric top.
 Rotational symmetry number  1.
 Rotational temperatures (Kelvin)      0.26043     0.03608     0.03182
 Rotational constants (GHZ):           5.42641     0.75175     0.66299
    2 imaginary frequencies ignored.
 Zero-point vibrational energy     157794.8 (Joules/Mol)
                                   37.71386 (Kcal/Mol)
 Warning -- explicit consideration of   7 degrees of freedom as
           vibrations may cause significant error
 Vibrational temperatures:     84.32   119.56   209.45   395.25   761.83
          (Kelvin)            820.60   886.98  1024.84  1037.54  1149.52
                             1166.73  1536.77  1543.65  1665.64  1771.86
                             2038.56  2057.68  2737.62  2819.85  4410.67
                             4462.40  5255.40
 
 Zero-point correction=                           0.060101 (Hartree/Particle)
 Thermal correction to Energy=                    0.066625
 Thermal correction to Enthalpy=                  0.067569
 Thermal correction to Gibbs Free Energy=         0.026165
 Sum of electronic and zero-point Energies=          -2915.858189
 Sum of electronic and thermal Energies=             -2915.851665
 Sum of electronic and thermal Enthalpies=           -2915.850721
 Sum of electronic and thermal Free Energies=        -2915.892125
 
                     E (Thermal)             CV                S
                      KCal/Mol        Cal/Mol-Kelvin    Cal/Mol-Kelvin
 Total                   41.808             20.940             87.142
 Electronic               0.000              0.000              1.377
 Translational            0.889              2.981             41.227
 Rotational               0.889              2.981             29.165
 Vibrational             40.030             14.979             15.373
 Vibration     1          0.596              1.974              4.504
 Vibration     2          0.600              1.961              3.816
 Vibration     3          0.617              1.907              2.729
 Vibration     4          0.677              1.720              1.566
 Vibration     5          0.884              1.185              0.588
 Vibration     6          0.926              1.095              0.504
 Vibration     7          0.976              0.997              0.422
                       Q            Log10(Q)             Ln(Q)
 Total Bot       0.922479D-12        -12.035044        -27.711712
 Total V=0       0.406826D+16         15.609409         35.941991
 Vib (Bot)       0.104035D-25        -25.982823        -59.827660
 Vib (Bot)    1  0.352404D+01          0.547040          1.259607
 Vib (Bot)    2  0.247716D+01          0.393955          0.907114
 Vib (Bot)    3  0.139463D+01          0.144459          0.332628
 Vib (Bot)    4  0.701803D+00         -0.153784         -0.354102
 Vib (Bot)    5  0.302177D+00         -0.519738         -1.196742
 Vib (Bot)    6  0.269753D+00         -0.569033         -1.310247
 Vib (Bot)    7  0.238100D+00         -0.623241         -1.435066
 Vib (V=0)       0.458807D+02          1.661630          3.826044
 Vib (V=0)    1  0.405933D+01          0.608454          1.401018
 Vib (V=0)    2  0.302712D+01          0.481030          1.107612
 Vib (V=0)    3  0.198155D+01          0.297005          0.683879
 Vib (V=0)    4  0.136170D+01          0.134082          0.308734
 Vib (V=0)    5  0.108422D+01          0.035117          0.080859
 Vib (V=0)    6  0.106813D+01          0.028622          0.065905
 Vib (V=0)    7  0.105380D+01          0.022757          0.052400
 Electronic      0.200000D+01          0.301030          0.693147
 Translational   0.840094D+08          7.924328         18.246439
 Rotational      0.527741D+06          5.722421         13.176361

     ==================================================
      Anharmonic Data: Displacement Vectors Definition
     ==================================================

 Framework definition based on atomic masses: CS  
 ***** Axes restored to original set *****
 -------------------------------------------------------------------
 Center     Atomic                   Forces (Hartrees/Bohr)
 Number     Number              X              Y              Z
 -------------------------------------------------------------------
      1        6          -0.020406149   -0.007016631    0.000000000
      2        6           0.108078870    0.021561827   -0.000000000
      3        8           0.037138767    0.104548752   -0.000000000
      4        6          -0.087154840   -0.078665056    0.000000000
      5        8          -0.035586272   -0.051924392   -0.000000000
      6        8          -0.031305232    0.026952768   -0.000000000
      7        1           0.006385096   -0.004418278   -0.001558748
      8       35           0.008219997    0.000803769   -0.000000000
      9        1           0.006385096   -0.004418278    0.001558748
     10        1           0.008244667   -0.007424481    0.000000000
 -------------------------------------------------------------------
 Cartesian Forces:  Max     0.108078870 RMS     0.038596732
 NDeriv=     24 NFrqRd=  0 NDerD0=      0 MskFDP=       0 MskDFD=       0 MskDF0=       0
 At 1st pt F.D. properties file   721 does not exist.
 At 1st pt F.D. properties file   722 does not exist.
 D2Numr ... symmetry will not be used.
 Basis read from rwf:  (5D, 7F)
   135 basis functions,   376 primitive gaussians,   144 cartesian basis functions
    41 alpha electrons       40 beta electrons
       nuclear repulsion energy       468.6863949746 Hartrees.
 NAtoms=   10 NActive=   10 NUniq=   10 SFac= 1.00D+00 NAtFMM=   60 NAOKFM=F Big=F
 Integral buffers will be    131072 words long.
 Raffenetti 2 integral format.
 Two-electron integral symmetry is turned off.
 Nuclear repulsion after empirical dispersion term =      468.6831064807 Hartrees.
 One-electron integrals computed using PRISM.
 NBasis=   135 RedAO= T EigKep=  2.36D-03  NBF=   135
 NBsUse=   135 1.00D-06 EigRej= -1.00D+00 NBFU=   135
 Initial guess from the checkpoint file:  ""anion.chk""
 B after Tr=     0.000000    0.000000   -0.000063
         Rot=    1.000000    0.000045    0.000013   -0.000000 Ang=   0.01 deg.
 Initial guess <Sx>= 0.0000 <Sy>= 0.0000 <Sz>= 0.5000 <S**2>= 0.7540 S= 0.5020
 Keep R1 and R2 ints in memory in canonical form, NReq=176331656.
 Requested convergence on RMS density matrix=1.00D-08 within 128 cycles.
 Requested convergence on MAX density matrix=1.00D-06.
 Requested convergence on             energy=1.00D-06.
 No special actions if energy rises.
 SCF Done:  E(UwB97XD) =  -2915.91829026     A.U. after   13 cycles
            NFock= 13  Conv=0.70D-08     -V/T= 2.0017
 <Sx>= 0.0000 <Sy>= 0.0000 <Sz>= 0.5000 <S**2>= 0.7540 S= 0.5020
 <L.S>= 0.000000000000E+00
 Annihilation of the first spin contaminant:
 S**2 before annihilation     0.7540,   after     0.7500
 DoSCS=F DFT=T ScalE2(SS,OS)=  1.000000  1.000000
 Range of M.O.s used for correlation:     1   135
 NBasis=   135 NAE=    41 NBE=    40 NFC=     0 NFV=     0
 NROrb=    135 NOA=    41 NOB=    40 NVA=    94 NVB=    95
 Symmetrizing basis deriv contribution to polar:
 IMax=3 JMax=2 DiffMx= 0.00D+00
 G2DrvN: will do    11 centers at a time, making    1 passes.
 Calling FoFCou, ICntrl=  3107 FMM=F I1Cent=   0 AccDes= 0.00D+00.
 End of G2Drv F.D. properties file   721 does not exist.
 End of G2Drv F.D. properties file   722 does not exist.
 End of G2Drv F.D. properties file   788 does not exist.
          IDoAtm=1111111111
          Differentiating once with respect to electric field.
                with respect to dipole field.
          Differentiating once with respect to nuclear coordinates.
 Keep R1 and R2 ints in memory in canonical form, NReq=176323410.
          There are    33 degrees of freedom in the 1st order CPHF.  IDoFFX=6 NUNeed=     3.
     30 vectors produced by pass  0 Test12= 2.32D-14 3.03D-09 XBig12= 8.51D+01 4.27D+00.
 AX will form    30 AO Fock derivatives at one time.
     30 vectors produced by pass  1 Test12= 2.32D-14 3.03D-09 XBig12= 8.61D+00 5.06D-01.
     30 vectors produced by pass  2 Test12= 2.32D-14 3.03D-09 XBig12= 3.39D-01 1.46D-01.
     30 vectors produced by pass  3 Test12= 2.32D-14 3.03D-09 XBig12= 1.82D-02 2.54D-02.
     30 vectors produced by pass  4 Test12= 2.32D-14 3.03D-09 XBig12= 4.18D-04 3.63D-03.
     30 vectors produced by pass  5 Test12= 2.32D-14 3.03D-09 XBig12= 3.86D-06 3.76D-04.
     30 vectors produced by pass  6 Test12= 2.32D-14 3.03D-09 XBig12= 3.87D-08 3.64D-05.
     26 vectors produced by pass  7 Test12= 2.32D-14 3.03D-09 XBig12= 4.38D-10 3.04D-06.
     10 vectors produced by pass  8 Test12= 2.32D-14 3.03D-09 XBig12= 3.99D-12 2.92D-07.
      3 vectors produced by pass  9 Test12= 2.32D-14 3.03D-09 XBig12= 3.40D-14 1.86D-08.
 InvSVY:  IOpt=1 It=  1 EMax= 1.24D-14
 Solved reduced A of dimension   249 with    33 vectors.
 Isotropic polarizability for W=    0.000000       67.49 Bohr**3.
 End of Minotr F.D. properties file   721 does not exist.
 End of Minotr F.D. properties file   722 does not exist.
 End of Minotr F.D. properties file   788 does not exist.

 **********************************************************************

            Population analysis using the SCF density.

 **********************************************************************

 Alpha  occ. eigenvalues -- -483.00434 -62.55635 -56.34815 -56.34521 -56.34512
 Alpha  occ. eigenvalues --  -19.11087 -19.03633 -19.03244 -10.20686 -10.18923
 Alpha  occ. eigenvalues --  -10.14606  -8.68344  -6.50460  -6.49322  -6.49283
 Alpha  occ. eigenvalues --   -2.60449  -2.60120  -2.60090  -2.59172  -2.59171
 Alpha  occ. eigenvalues --   -1.01424  -0.93909  -0.92394  -0.76102  -0.63898
 Alpha  occ. eigenvalues --   -0.53283  -0.48938  -0.41596  -0.38971  -0.35027
 Alpha  occ. eigenvalues --   -0.34156  -0.33042  -0.31859  -0.27108  -0.26826
 Alpha  occ. eigenvalues --   -0.22139  -0.21594  -0.21368  -0.20071  -0.12273
 Alpha  occ. eigenvalues --   -0.00079
 Alpha virt. eigenvalues --    0.19522   0.23541   0.24058   0.27127   0.27967
 Alpha virt. eigenvalues --    0.32449   0.34196   0.37180   0.38621   0.44283
 Alpha virt. eigenvalues --    0.48722   0.48948   0.49047   0.53365   0.56149
 Alpha virt. eigenvalues --    0.58993   0.61935   0.65367   0.70151   0.75148
 Alpha virt. eigenvalues --    0.75498   0.76556   0.80934   0.82505   0.86054
 Alpha virt. eigenvalues --    0.86481   0.87937   0.88007   0.89999   0.91885
 Alpha virt. eigenvalues --    0.93132   0.98758   0.99001   1.02237   1.07129
 Alpha virt. eigenvalues --    1.11100   1.18259   1.19922   1.20896   1.21317
 Alpha virt. eigenvalues --    1.21817   1.21987   1.25590   1.25895   1.27558
 Alpha virt. eigenvalues --    1.27810   1.30304   1.32482   1.35701   1.38918
 Alpha virt. eigenvalues --    1.40308   1.44631   1.49645   1.50099   1.61267
 Alpha virt. eigenvalues --    1.63455   1.67972   1.69265   1.81570   1.81775
 Alpha virt. eigenvalues --    1.88169   1.90746   1.91688   1.93562   1.95258
 Alpha virt. eigenvalues --    2.04383   2.05947   2.15859   2.19138   2.23869
 Alpha virt. eigenvalues --    2.25377   2.25657   2.37985   2.38922   2.45188
 Alpha virt. eigenvalues --    2.50955   2.67478   2.69727   2.77447   2.90196
 Alpha virt. eigenvalues --    2.98719   2.98739   3.03143   3.09162   3.20677
 Alpha virt. eigenvalues --    3.35953   3.38064   3.47639   3.52144   3.66306
 Alpha virt. eigenvalues --    3.69063   3.79333   3.84011   4.00101
  Beta  occ. eigenvalues -- -483.00435 -62.55635 -56.34816 -56.34521 -56.34512
  Beta  occ. eigenvalues --  -19.11006 -19.03261 -19.02417 -10.20550 -10.18973
  Beta  occ. eigenvalues --  -10.14127  -8.68344  -6.50460  -6.49321  -6.49284
  Beta  occ. eigenvalues --   -2.60449  -2.60120  -2.60090  -2.59172  -2.59172
  Beta  occ. eigenvalues --   -1.01020  -0.92301  -0.91619  -0.75997  -0.63234
  Beta  occ. eigenvalues --   -0.52271  -0.48288  -0.40912  -0.37961  -0.34343
  Beta  occ. eigenvalues --   -0.32933  -0.32871  -0.31037  -0.26678  -0.22514
  Beta  occ. eigenvalues --   -0.21482  -0.21305  -0.19634  -0.19408  -0.11436
  Beta virt. eigenvalues --    0.19524   0.23536   0.23860   0.24958   0.27147
  Beta virt. eigenvalues --    0.27975   0.34291   0.34629   0.37184   0.41083
  Beta virt. eigenvalues --    0.44729   0.48753   0.49065   0.49148   0.53913
  Beta virt. eigenvalues --    0.56595   0.59490   0.62559   0.65572   0.70400
  Beta virt. eigenvalues --    0.75817   0.76170   0.76816   0.81098   0.83186
  Beta virt. eigenvalues --    0.86615   0.86640   0.88185   0.88228   0.90104
  Beta virt. eigenvalues --    0.92193   0.93280   0.99407   0.99900   1.02509
  Beta virt. eigenvalues --    1.07441   1.11494   1.18675   1.20047   1.21100
  Beta virt. eigenvalues --    1.21403   1.22022   1.22314   1.25618   1.26161
  Beta virt. eigenvalues --    1.28083   1.28093   1.32201   1.33805   1.35999
  Beta virt. eigenvalues --    1.40418   1.40443   1.44969   1.50393   1.50675
  Beta virt. eigenvalues --    1.61545   1.63740   1.68711   1.70452   1.82166
  Beta virt. eigenvalues --    1.82918   1.88386   1.91271   1.91957   1.94050
  Beta virt. eigenvalues --    1.95576   2.04983   2.06296   2.16294   2.19477
  Beta virt. eigenvalues --    2.24081   2.26030   2.26667   2.38387   2.39159
  Beta virt. eigenvalues --    2.45514   2.51578   2.67727   2.69943   2.78113
  Beta virt. eigenvalues --    2.91309   2.99957   3.01192   3.05675   3.09689
  Beta virt. eigenvalues --    3.21370   3.38111   3.38432   3.49159   3.52497
  Beta virt. eigenvalues --    3.66666   3.69764   3.80171   3.84718   4.00237
          Condensed to atoms (all electrons):
               1          2          3          4          5          6
     1  C    5.164096  -0.076806  -0.104404   0.179468   0.029417   0.006283
     2  C   -0.076806   4.601198  -0.075127   0.339860   0.747344   0.423081
     3  O   -0.104404  -0.075127   7.829643   0.598484   0.001784  -0.005768
     4  C    0.179468   0.339860   0.598484   5.364884  -0.134999  -0.110895
     5  O    0.029417   0.747344   0.001784  -0.134999   7.732726  -0.046488
     6  O    0.006283   0.423081  -0.005768  -0.110895  -0.046488   7.601625
     7  H    0.374987  -0.006049   0.002000  -0.033761   0.008778   0.000297
     8  Br   0.156665   0.016882   0.052089  -0.041046  -0.004161  -0.001657
     9  H    0.374763  -0.006203   0.001984  -0.033935   0.008783   0.000297
    10  H    0.005727  -0.062589   0.054068  -0.012316   0.004254   0.346986
               7          8          9         10
     1  C    0.374987   0.156665   0.374763   0.005727
     2  C   -0.006049   0.016882  -0.006203  -0.062589
     3  O    0.002000   0.052089   0.001984   0.054068
     4  C   -0.033761  -0.041046  -0.033935  -0.012316
     5  O    0.008778  -0.004161   0.008783   0.004254
     6  O    0.000297  -0.001657   0.000297   0.346986
     7  H    0.680860  -0.036514  -0.052344  -0.000155
     8  Br  -0.036514  35.112876  -0.036451  -0.002138
     9  H   -0.052344  -0.036451   0.681425  -0.000150
    10  H   -0.000155  -0.002138  -0.000150   0.530016
          Atomic-Atomic Spin Densities.
               1          2          3          4          5          6
     1  C   -0.048978   0.000749   0.000739   0.019442  -0.000159   0.000051
     2  C    0.000749   0.127487  -0.011912   0.097498  -0.063105  -0.024072
     3  O    0.000739  -0.011912   0.502247  -0.176177   0.000233   0.002345
     4  C    0.019442   0.097498  -0.176177   0.515920  -0.013853  -0.009911
     5  O   -0.000159  -0.063105   0.000233  -0.013853   0.214621   0.004035
     6  O    0.000051  -0.024072   0.002345  -0.009911   0.004035   0.051087
     7  H   -0.002654  -0.003806   0.001618  -0.018717   0.001791   0.000079
     8  Br   0.006432  -0.001245   0.000031  -0.008162   0.000302   0.000071
     9  H   -0.003282  -0.004004   0.001674  -0.018740   0.001868   0.000082
    10  H   -0.000262   0.001419  -0.001491  -0.000851  -0.000030   0.001359
               7          8          9         10
     1  C   -0.002654   0.006432  -0.003282  -0.000262
     2  C   -0.003806  -0.001245  -0.004004   0.001419
     3  O    0.001618   0.000031   0.001674  -0.001491
     4  C   -0.018717  -0.008162  -0.018740  -0.000851
     5  O    0.001791   0.000302   0.001868  -0.000030
     6  O    0.000079   0.000071   0.000082   0.001359
     7  H    0.057970   0.002299  -0.019456  -0.000002
     8  Br   0.002299  -0.005254   0.002383   0.000118
     9  H   -0.019456   0.002383   0.058972   0.000001
    10  H   -0.000002   0.000118   0.000001  -0.003530
 Mulliken charges and spin densities:
               1          2
     1  C   -0.110195  -0.027922
     2  C    0.098408   0.119009
     3  O   -0.354752   0.319307
     4  C   -0.115744   0.386450
     5  O   -0.347439   0.145703
     6  O   -0.213763   0.025126
     7  H    0.061901   0.019124
     8  Br  -0.216545  -0.003025
     9  H    0.061831   0.019498
    10  H    0.136297  -0.003269
 Sum of Mulliken charges =  -1.00000   1.00000
 Mulliken charges and spin densities with hydrogens summed into heavy atoms:
               1          2
     1  C    0.013537   0.010700
     2  C    0.098408   0.119009
     3  O   -0.354752   0.319307
     4  C   -0.115744   0.386450
     5  O   -0.347439   0.145703
     6  O   -0.077466   0.021857
     8  Br  -0.216545  -0.003025
 APT charges:
               1
     1  C    0.377774
     2  C    1.212683
     3  O   -0.791137
     4  C    0.151150
     5  O   -0.934777
     6  O   -0.845334
     7  H   -0.076391
     8  Br  -0.332317
     9  H   -0.078425
    10  H    0.316774
 Sum of APT charges =  -1.00000
 APT charges with hydrogens summed into heavy atoms:
               1
     1  C    0.222958
     2  C    1.212683
     3  O   -0.791137
     4  C    0.151150
     5  O   -0.934777
     6  O   -0.528560
     8  Br  -0.332317
 Electronic spatial extent (au):  <R**2>=           1477.8011
 Charge=             -1.0000 electrons
 Dipole moment (field-independent basis, Debye):
    X=              4.2734    Y=              1.4019    Z=              0.0006  Tot=              4.4975
 Quadrupole moment (field-independent basis, Debye-Ang):
   XX=            -83.4802   YY=            -60.8666   ZZ=            -54.0750
   XY=             -0.5721   XZ=             -0.0015   YZ=             -0.0005
 Traceless Quadrupole moment (field-independent basis, Debye-Ang):
   XX=            -17.3396   YY=              5.2740   ZZ=             12.0656
   XY=             -0.5721   XZ=             -0.0015   YZ=             -0.0005
 Octapole moment (field-independent basis, Debye-Ang**2):
  XXX=            111.7098  YYY=              8.5099  ZZZ=             -0.0127  XYY=             11.7149
  XXY=             -3.2742  XXZ=              0.0133  XZZ=             10.2214  YZZ=              3.4640
  YYZ=              0.0157  XYZ=             -0.0065
 Hexadecapole moment (field-independent basis, Debye-Ang**3):
 XXXX=          -1453.5747 YYYY=           -362.7018 ZZZZ=            -64.8662 XXXY=           -175.5575
 XXXZ=             -0.0194 YYYX=           -148.4080 YYYZ=              0.0102 ZZZX=              0.0295
 ZZZY=              0.0133 XXYY=           -295.2710 XXZZ=           -214.8554 YYZZ=            -71.5652
 XXYZ=              0.0137 YYXZ=              0.0062 ZZXY=            -53.4201
 N-N= 4.686831064807D+02 E-N=-7.907714636052D+03  KE= 2.910850294440D+03
  Exact polarizability:  94.171   5.580  65.250  -0.008  -0.015  43.042
 Approx polarizability:  92.018  -4.550  76.317   0.002  -0.006  50.754
                          Isotropic Fermi Contact Couplings
        Atom                 a.u.       MegaHertz       Gauss      10(-4) cm-1
     1  C(13)             -0.01853     -20.82653      -7.43142      -6.94698
     2  C(13)             -0.00419      -4.70653      -1.67941      -1.56993
     3  O(17)              0.07982     -48.38702     -17.26569     -16.14017
     4  C(13)              0.03227      36.27898      12.94524      12.10137
     5  O(17)              0.03384     -20.51621      -7.32069      -6.84347
     6  O(17)              0.00630      -3.81723      -1.36208      -1.27329
     7  H(1)               0.00926      41.41022      14.77620      13.81296
     8  Br(79)            -0.00176      -1.97716      -0.70550      -0.65951
     9  H(1)               0.00934      41.76205      14.90174      13.93032
    10  H(1)              -0.00054      -2.43588      -0.86918      -0.81252
 --------------------------------------------------------
       Center         ----  Spin Dipole Couplings  ----
                      3XX-RR        3YY-RR        3ZZ-RR
 --------------------------------------------------------
     1   Atom        0.004601      0.002623     -0.007224
     2   Atom       -0.074210     -0.084588      0.158798
     3   Atom       -0.669424     -0.694430      1.363854
     4   Atom       -0.232541     -0.220259      0.452800
     5   Atom       -0.312389     -0.312487      0.624876
     6   Atom       -0.076957     -0.082738      0.159696
     7   Atom       -0.002773      0.008416     -0.005643
     8   Atom       -0.000680     -0.007214      0.007894
     9   Atom       -0.002709      0.008358     -0.005649
    10   Atom        0.006068      0.005055     -0.011123
 --------------------------------------------------------
                        XY            XZ            YZ
 --------------------------------------------------------
     1   Atom        0.011331     -0.000133      0.000017
     2   Atom       -0.009601     -0.001231      0.000141
     3   Atom        0.014183      0.004106     -0.002969
     4   Atom       -0.013958      0.000969     -0.000271
     5   Atom        0.000125     -0.003534     -0.000113
     6   Atom        0.000397     -0.000213     -0.000609
     7   Atom        0.006298      0.002281      0.004455
     8   Atom       -0.004677      0.000613     -0.000044
     9   Atom        0.006301     -0.002281     -0.004498
    10   Atom        0.004414     -0.000009      0.000010
 --------------------------------------------------------


 ---------------------------------------------------------------------------------
              Anisotropic Spin Dipole Couplings in Principal Axis System
 ---------------------------------------------------------------------------------

       Atom             a.u.   MegaHertz   Gauss  10(-4) cm-1        Axes

              Baa    -0.0078    -1.044    -0.373    -0.348 -0.6650  0.7246 -0.1812
     1 C(13)  Bbb    -0.0072    -0.967    -0.345    -0.323 -0.1196  0.1362  0.9834
              Bcc     0.0150     2.011     0.718     0.671  0.7372  0.6756 -0.0039
 
              Baa    -0.0903   -12.119    -4.324    -4.043  0.5122  0.8588  0.0020
     2 C(13)  Bbb    -0.0685    -9.191    -3.280    -3.066  0.8588 -0.5122  0.0050
              Bcc     0.1588    21.310     7.604     7.108 -0.0053  0.0008  1.0000
 
              Baa    -0.7008    50.713    18.096    16.916 -0.4117  0.9113  0.0021
     3 O(17)  Bbb    -0.6630    47.976    17.119    16.003  0.9113  0.4117 -0.0012
              Bcc     1.3639   -98.688   -35.214   -32.919  0.0020 -0.0014  1.0000
 
              Baa    -0.2416   -32.427   -11.571   -10.817  0.8375  0.5465 -0.0010
     4 C(13)  Bbb    -0.2112   -28.335   -10.110    -9.451 -0.5465  0.8375  0.0011
              Bcc     0.4528    60.762    21.681    20.268  0.0014 -0.0004  1.0000
 
              Baa    -0.3126    22.618     8.071     7.544 -0.5829  0.8126 -0.0021
     5 O(17)  Bbb    -0.3123    22.599     8.064     7.538  0.8125  0.5829  0.0031
              Bcc     0.6249   -45.217   -16.134   -15.083 -0.0038 -0.0001  1.0000
 
              Baa    -0.0828     5.989     2.137     1.998 -0.0681  0.9977  0.0024
     6 O(17)  Bbb    -0.0769     5.567     1.986     1.857  0.9977  0.0681  0.0011
              Bcc     0.1597   -11.556    -4.123    -3.855 -0.0009 -0.0025  1.0000
 
              Baa    -0.0071    -3.763    -1.343    -1.255 -0.2589 -0.1685  0.9511
     7 H(1)   Bbb    -0.0056    -2.967    -1.059    -0.990  0.8798 -0.4475  0.1602
              Bcc     0.0126     6.730     2.402     2.245  0.3986  0.8783  0.2641
 
              Baa    -0.0097    -1.295    -0.462    -0.432  0.4628  0.8863 -0.0139
     8 Br(79) Bbb     0.0017     0.229     0.082     0.076  0.8822 -0.4621 -0.0907
              Bcc     0.0079     1.066     0.380     0.356  0.0868 -0.0297  0.9958
 
              Baa    -0.0071    -3.772    -1.346    -1.258  0.2369  0.1815  0.9544
     9 H(1)   Bbb    -0.0055    -2.951    -1.053    -0.984  0.8851 -0.4453 -0.1350
              Bcc     0.0126     6.723     2.399     2.243  0.4005  0.8768 -0.2661
 
              Baa    -0.0111    -5.935    -2.118    -1.980  0.0007 -0.0008  1.0000
    10 H(1)   Bbb     0.0011     0.597     0.213     0.199 -0.6656  0.7463  0.0011
              Bcc     0.0100     5.338     1.905     1.781  0.7463  0.6656  0.0000
 

 ---------------------------------------------------------------------------------

 Calling FoFJK, ICntrl=    100127 FMM=F ISym2X=0 I1Cent= 0 IOpClX= 1 NMat=1 NMatS=1 NMatT=0.
 -------------------------------------------------------------------
 Center     Atomic                   Forces (Hartrees/Bohr)
 Number     Number              X              Y              Z
 -------------------------------------------------------------------
      1        6          -0.021274344    0.003623750   -0.000030408
      2        6           0.110140921   -0.003792445    0.000069706
      3        8           0.053559339   -0.097157899   -0.000188272
      4        6          -0.098727979    0.063525465    0.000127221
      5        8          -0.043516296    0.045481248    0.000013571
      6        8          -0.026532259   -0.031661014   -0.000002856
      7        1           0.005583131    0.005401861    0.001546605
      8       35           0.008241994    0.000536685    0.000035845
      9        1           0.005590234    0.005381936   -0.001567973
     10        1           0.006935259    0.008660413   -0.000003437
 -------------------------------------------------------------------
 Cartesian Forces:  Max     0.110140921 RMS     0.038595113
 NDeriv=     24 NFrqRd=  0 NDerD0=      0 MskFDP=       0 MskDFD=       0 MskDF0=       0
 Re-enter D2Numr:  normal mode   1 step-up   number 1
 Basis read from rwf:  (5D, 7F)
   135 basis functions,   376 primitive gaussians,   144 cartesian basis functions
    41 alpha electrons       40 beta electrons
       nuclear repulsion energy       468.6863949735 Hartrees.
 NAtoms=   10 NActive=   10 NUniq=   10 SFac= 1.00D+00 NAtFMM=   60 NAOKFM=F Big=F
 Integral buffers will be    131072 words long.
 Raffenetti 2 integral format.
 Two-electron integral symmetry is turned off.
 Nuclear repulsion after empirical dispersion term =      468.6831064796 Hartrees.
 One-electron integrals computed using PRISM.
 NBasis=   135 RedAO= T EigKep=  2.36D-03  NBF=   135
 NBsUse=   135 1.00D-06 EigRej= -1.00D+00 NBFU=   135
 Initial guess from the checkpoint file:  ""anion.chk""
 B after Tr=    -0.000000   -0.000000    0.000063
         Rot=    1.000000   -0.000045   -0.000013   -0.000000 Ang=  -0.01 deg.
 Initial guess <Sx>= 0.0000 <Sy>= 0.0000 <Sz>= 0.5000 <S**2>= 0.7540 S= 0.5020
 Keep R1 and R2 ints in memory in canonical form, NReq=176331656.
 Requested convergence on RMS density matrix=1.00D-08 within 128 cycles.
 Requested convergence on MAX density matrix=1.00D-06.
 Requested convergence on             energy=1.00D-06.
 No special actions if energy rises.
 SCF Done:  E(UwB97XD) =  -2915.91829026     A.U. after   13 cycles
            NFock= 13  Conv=0.70D-08     -V/T= 2.0017
 <Sx>= 0.0000 <Sy>= 0.0000 <Sz>= 0.5000 <S**2>= 0.7540 S= 0.5020
 <L.S>= 0.000000000000E+00
 Annihilation of the first spin contaminant:
 S**2 before annihilation     0.7540,   after     0.7500
 DoSCS=F DFT=T ScalE2(SS,OS)=  1.000000  1.000000
 Range of M.O.s used for correlation:     1   135
 NBasis=   135 NAE=    41 NBE=    40 NFC=     0 NFV=     0
 NROrb=    135 NOA=    41 NOB=    40 NVA=    94 NVB=    95
 Symmetrizing basis deriv contribution to polar:
 IMax=3 JMax=2 DiffMx= 0.00D+00
 G2DrvN: will do    11 centers at a time, making    1 passes.
 Calling FoFCou, ICntrl=  3107 FMM=F I1Cent=   0 AccDes= 0.00D+00.
 End of G2Drv F.D. properties file   721 does not exist.
 End of G2Drv F.D. properties file   722 does not exist.
 End of G2Drv F.D. properties file   788 does not exist.
          IDoAtm=1111111111
          Differentiating once with respect to electric field.
                with respect to dipole field.
          Differentiating once with respect to nuclear coordinates.
 Keep R1 and R2 ints in memory in canonical form, NReq=176323410.
          There are    33 degrees of freedom in the 1st order CPHF.  IDoFFX=6 NUNeed=     3.
     30 vectors produced by pass  0 Test12= 2.32D-14 3.03D-09 XBig12= 8.51D+01 4.27D+00.
 AX will form    30 AO Fock derivatives at one time.
     30 vectors produced by pass  1 Test12= 2.32D-14 3.03D-09 XBig12= 8.61D+00 5.06D-01.
     30 vectors produced by pass  2 Test12= 2.32D-14 3.03D-09 XBig12= 3.39D-01 1.46D-01.
     30 vectors produced by pass  3 Test12= 2.32D-14 3.03D-09 XBig12= 1.82D-02 2.54D-02.
     30 vectors produced by pass  4 Test12= 2.32D-14 3.03D-09 XBig12= 4.18D-04 3.63D-03.
     30 vectors produced by pass  5 Test12= 2.32D-14 3.03D-09 XBig12= 3.86D-06 3.76D-04.
     30 vectors produced by pass  6 Test12= 2.32D-14 3.03D-09 XBig12= 3.87D-08 3.64D-05.
     26 vectors produced by pass  7 Test12= 2.32D-14 3.03D-09 XBig12= 4.38D-10 3.04D-06.
     10 vectors produced by pass  8 Test12= 2.32D-14 3.03D-09 XBig12= 4.00D-12 2.93D-07.
      3 vectors produced by pass  9 Test12= 2.32D-14 3.03D-09 XBig12= 3.41D-14 1.88D-08.
 InvSVY:  IOpt=1 It=  1 EMax= 5.33D-15
 Solved reduced A of dimension   249 with    33 vectors.
 Isotropic polarizability for W=    0.000000       67.49 Bohr**3.
 End of Minotr F.D. properties file   721 does not exist.
 End of Minotr F.D. properties file   722 does not exist.
 End of Minotr F.D. properties file   788 does not exist.

 **********************************************************************

            Population analysis using the SCF density.

 **********************************************************************

 Alpha  occ. eigenvalues -- -483.00434 -62.55635 -56.34815 -56.34521 -56.34512
 Alpha  occ. eigenvalues --  -19.11087 -19.03633 -19.03244 -10.20686 -10.18923
 Alpha  occ. eigenvalues --  -10.14606  -8.68344  -6.50460  -6.49322  -6.49283
 Alpha  occ. eigenvalues --   -2.60449  -2.60120  -2.60090  -2.59172  -2.59171
 Alpha  occ. eigenvalues --   -1.01424  -0.93909  -0.92394  -0.76102  -0.63898
 Alpha  occ. eigenvalues --   -0.53283  -0.48938  -0.41596  -0.38971  -0.35027
 Alpha  occ. eigenvalues --   -0.34156  -0.33042  -0.31859  -0.27108  -0.26826
 Alpha  occ. eigenvalues --   -0.22139  -0.21594  -0.21368  -0.20071  -0.12273
 Alpha  occ. eigenvalues --   -0.00079
 Alpha virt. eigenvalues --    0.19522   0.23541   0.24058   0.27127   0.27967
 Alpha virt. eigenvalues --    0.32449   0.34196   0.37180   0.38621   0.44283
 Alpha virt. eigenvalues --    0.48722   0.48948   0.49047   0.53365   0.56149
 Alpha virt. eigenvalues --    0.58993   0.61935   0.65367   0.70151   0.75148
 Alpha virt. eigenvalues --    0.75498   0.76556   0.80934   0.82505   0.86054
 Alpha virt. eigenvalues --    0.86481   0.87937   0.88007   0.89999   0.91885
 Alpha virt. eigenvalues --    0.93132   0.98758   0.99001   1.02237   1.07129
 Alpha virt. eigenvalues --    1.11100   1.18259   1.19922   1.20896   1.21317
 Alpha virt. eigenvalues --    1.21817   1.21987   1.25590   1.25895   1.27558
 Alpha virt. eigenvalues --    1.27810   1.30304   1.32482   1.35701   1.38918
 Alpha virt. eigenvalues --    1.40308   1.44631   1.49645   1.50099   1.61267
 Alpha virt. eigenvalues --    1.63455   1.67972   1.69265   1.81570   1.81775
 Alpha virt. eigenvalues --    1.88169   1.90746   1.91688   1.93562   1.95258
 Alpha virt. eigenvalues --    2.04383   2.05947   2.15859   2.19138   2.23869
 Alpha virt. eigenvalues --    2.25377   2.25657   2.37985   2.38922   2.45188
 Alpha virt. eigenvalues --    2.50955   2.67478   2.69727   2.77447   2.90196
 Alpha virt. eigenvalues --    2.98719   2.98739   3.03143   3.09162   3.20677
 Alpha virt. eigenvalues --    3.35953   3.38064   3.47639   3.52144   3.66306
 Alpha virt. eigenvalues --    3.69063   3.79333   3.84011   4.00101
  Beta  occ. eigenvalues -- -483.00435 -62.55635 -56.34816 -56.34521 -56.34512
  Beta  occ. eigenvalues --  -19.11006 -19.03261 -19.02417 -10.20550 -10.18973
  Beta  occ. eigenvalues --  -10.14127  -8.68344  -6.50460  -6.49321  -6.49284
  Beta  occ. eigenvalues --   -2.60449  -2.60120  -2.60090  -2.59172  -2.59172
  Beta  occ. eigenvalues --   -1.01020  -0.92301  -0.91619  -0.75997  -0.63234
  Beta  occ. eigenvalues --   -0.52271  -0.48288  -0.40912  -0.37961  -0.34343
  Beta  occ. eigenvalues --   -0.32933  -0.32871  -0.31037  -0.26678  -0.22514
  Beta  occ. eigenvalues --   -0.21482  -0.21305  -0.19634  -0.19408  -0.11436
  Beta virt. eigenvalues --    0.19524   0.23536   0.23860   0.24958   0.27147
  Beta virt. eigenvalues --    0.27975   0.34291   0.34629   0.37184   0.41083
  Beta virt. eigenvalues --    0.44729   0.48753   0.49065   0.49148   0.53913
  Beta virt. eigenvalues --    0.56595   0.59490   0.62559   0.65572   0.70400
  Beta virt. eigenvalues --    0.75817   0.76170   0.76816   0.81098   0.83186
  Beta virt. eigenvalues --    0.86615   0.86640   0.88185   0.88228   0.90104
  Beta virt. eigenvalues --    0.92193   0.93280   0.99407   0.99900   1.02509
  Beta virt. eigenvalues --    1.07441   1.11494   1.18675   1.20047   1.21100
  Beta virt. eigenvalues --    1.21403   1.22022   1.22314   1.25618   1.26161
  Beta virt. eigenvalues --    1.28083   1.28093   1.32201   1.33805   1.35999
  Beta virt. eigenvalues --    1.40418   1.40443   1.44969   1.50393   1.50675
[...]
 52797,0.00185841,0.00304087,-0.00069305,-0.00081678,-0.00073757,-0.000
 39904,-0.00043522,-0.00158393,0.00137674,-0.00026796,0.00342426,0.0005
 7944,0.00079113,-0.00025609,0.00011782,-0.00004623,0.00021929,-0.00089
 630,-0.00198931,-0.00258173,0.00256103,-0.00192183,-0.00000334,0.00097
 833,0.00083559,-0.00000432,0.00174066,0.00162401,-0.00000070,-0.001227
 01,-0.00081617,0.00000036,0.00021040,-0.00059033,0.00000348,-0.0012713
 8,0.00070809,0.00000047,0.00035237,0.00004212,-0.00000684,-0.00383876,
 0.00046139,0.00034202,0.00000074,0.00020915,-0.00007150,0.00000186,-0.
 00059765,0.00057710,0.00000022,-0.00018057,-0.00016673,-0.00000090,0.0
 0005420,0.00008035,-0.00000092,-0.00003465,0.00000242,-0.00000019,-0.0
 0004287,0.00006014,0.00001412,0.00015992,-0.00083736,-0.00000332,-0.00
 000183,0.00075940,0.00000853,0.00000318,-0.00016490,-0.00000105,-0.000
 00744,0.00000027,-0.00000254,0.00000629,-0.00006783,-0.00000323,-0.000
 00539,-0.00003133,-0.00000005,0.00000551,0.00004682,-0.00007816,0.0001
 5540,0.00004749,0.00001530,0.00000543,-0.00063767,0.00020327,0.0001862
 6,-0.00273353,-0.00040536,-0.00034731,0.00324015,0.00002186,0.00030083
 ,-0.00118999,0.00021838,0.00002452,0.00027186,0.00008075,0.00032386,-0
 .00026363,0.00007460,-0.00024401,-0.00095803,0.00232424,0.00088561,0.0
 0049811,0.00039719,-0.00003310,0.00006689,-0.00300868,-0.00141989,0.00
 333581,-0.00165698,-0.00119001,-0.00118875,0.00272083,-0.00072598,-0.0
 0084780,0.00164848,0.00234617,0.00020646,-0.00444931,0.00117602,0.0014
 8449,-0.00039023,0.00006467,-0.00001257,-0.00067205,0.00088175,0.00052
 642,0.00086588,0.00006499,0.00005989,-0.00015833,-0.00113678,-0.003605
 91,0.00052619,-0.00186038,0.00304199,0.00069434,0.00081511,-0.00073757
 ,0.00039917,0.00043659,-0.00158356,-0.00137579,0.00026771,0.00342604,-
 0.00058004,-0.00079230,-0.00025806,-0.00011589,0.00004984,0.00021945,-
 0.00049193,-0.00086390,-0.00150584,-0.00000670,-0.00001867,0.00005052,
 0.00090294,0.00199314,-0.00258673,-0.00074004,0.00023309,0.00000187,0.
 00288269,-0.00672578,0.00000341,0.00089667,-0.00097716,0.00000032,-0.0
 0058054,0.00042855,-0.00000142,-0.00002427,0.00216913,-0.00000160,0.00
 849144,0.00376259,-0.00000041,0.00009061,-0.00006313,-0.00004042,0.000
 11394,-0.00000084,-0.00000105,0.00009604,-0.00005806,0.00003938,-0.011
 22038,-0.00016392,0.00048310,0.00000075,0.00137407,-0.00298800,0.00000
 010,0.00099615,0.00269085,0.00000024,-0.00052801,-0.00258091,0.0000024
 1,0.00107461,0.00020477,-0.00000234,-0.00398830,-0.00510974,0.00000006
 ,0.00004255,0.00003942,0.00003141,-0.00009312,-0.00004568,-0.00000223,
 0.00004205,0.00004426,-0.00003282,0.00123707,0.00725785,0.00000400,0.0
 0000336,0.00018031,0.00000438,0.00000344,0.00253695,0.00000116,0.00000
 392,0.00046430,-0.00000153,-0.00000816,-0.00097496,0.00000109,-0.00000
 147,-0.00012181,-0.00000477,-0.00000319,0.00129414,-0.00016706,-0.0001
 0016,-0.00006779,-0.00000048,-0.00000057,0.00001013,0.00016492,0.00009
 809,-0.00006530,-0.00000116,0.00000317,-0.00325585,-0.52243666,0.28938
 816,-0.04731454,0.00000164,0.00000016,1.25444435,-0.01128434,0.0347146
 6,-0.00001228,-0.01549267,-0.00227406,0.00979476,-0.00000558,-0.004819
 01,-0.01595334,0.00000126,-0.00000148,-0.00528036,-0.00002155,-0.00001
 047,0.02547446,-0.00422502,0.01525378,0.00000052,-0.01077640,-0.003236
 44,0.00000010,-0.00579813,-0.00714898,0.01012034,0.00000615,-0.0140951
 9,-0.00754878,0.00000750,-0.00599430,0.00644238,0.00000039,0.00000018,
 0.01241224,-0.00000228,-0.00000075,0.00143480,0.00000037,0.00000181,0.
 00131545,0.01610894,-0.05903015,0.00000385,0.03720548,0.01408681,0.000
 00697,0.01949667,0.01325631,0.00000061,-0.06817539,-0.01974808,0.01855
 350,-0.00000235,-0.00621424,0.00308195,0.00000051,-0.00007454,-0.00490
 500,-0.00000127,0.02001830,-0.01645524,0.00000290,0.00000288,-0.033663
 09,0.00000698,0.00000420,-0.00726400,0.00000066,0.00000152,-0.00145362
 ,-0.00000228,-0.00000615,0.00789379,0.00239637,-0.00957708,0.00000306,
 0.00350533,0.00856489,0.00000449,0.00338214,0.00647896,0.00000069,-0.0
 1052473,0.00014443,0.00000007,-0.00026698,0.00600998,-0.02060761,0.000
 00689,0.01586596,0.00977427,0.00001126,0.00831228,0.01739372,0.0000014
 3,-0.02813159,-0.00201340,-0.00000301,-0.01019788,-0.00849035,-0.00000
 372,-0.00000144,0.00049236,0.00001216,0.00000492,-0.01133593,-0.000001
 02,-0.00000853,-0.00176103,-0.00000381,0.00000599,0.00346199,-0.000004
 02,-0.00000711,0.00742601,0.00138524,-0.00548949,0.00000281,0.00343012
 ,-0.00331714,0.00000622,0.00140514,0.00398402,0.00000027,-0.00604658,-
 0.00058782,-0.00000453,-0.00080069,-0.00100807,-0.00000098,-0.00112033
 ,-0.00305963,0.01042892,-0.00000443,-0.00795953,0.00345513,-0.00000555
 ,-0.00402826,-0.00956678,-0.00000137,0.01274633,0.00266731,-0.00000121
 ,0.00014453,-0.00345591,0.00000640,0.00509725,0.00009404,-0.00000031,0
 .00000027,0.00177481,0.00000257,0.00000126,-0.00770757,0.00000019,-0.0
 0000046,0.00021466,-0.00000091,-0.00000066,0.00329309,-0.00000045,-0.0
 0000114,0.00161891,-0.00000084,0.00000042,0.00354977,0.25407673,-0.132
 08731,-0.26666310,-0.00233578,-0.00357154,-0.00097103,-0.00106827,0.00
 122581,0.00023808,0.00351774,0.00408550,0.00559290,0.00072878,0.003206
 58,0.00055606,0.00068242,-0.00072510,-0.00015313,-0.26818146,-0.136480
 12,0.00944160,-0.63231613,-0.00948397,-0.00139625,-0.00033011,-0.00561
 612,-0.00627794,-0.00405788,0.01483669,-0.00005416,0.00499689,0.002293
 56,0.00391690,0.00001690,0.00105565,-0.00194600,0.00010450,0.12622474,
 -0.01906161,-0.25537990,-0.59751936,-0.61292660,-0.01010746,-0.0040410
 4,0.00093395,-0.00578483,-0.00374333,-0.00541552,0.01257400,0.01195783
 ,0.01388830,0.00293700,0.00605587,-0.00006534,0.00229737,-0.00317656,-
 0.00063044,0.25378253,0.60898101,0.60594385,0.00956489,0.00038096,-0.0
 0000311,-0.00237211,-0.00107809,-0.00000420,-0.00223058,-0.00120749,-0
 .00000072,0.00711188,-0.00049836,0.00000036,0.00045141,0.00102877,0.00
 000348,0.00075212,-0.00052241,0.00000044,0.00080725,0.00474907,0.00886
 521,-0.01499374,0.00934209,0.00192869,0.00000086,0.00010225,0.00044483
 ,0.00000191,0.00038572,-0.00016700,0.00000022,-0.00063528,-0.00096183,
 -0.00000090,0.00020681,-0.00022897,-0.00000092,-0.00006857,-0.00000754
 ,-0.00000018,-0.00076582,-0.00039299,0.00293474,-0.00776109,-0.0002231
 6,-0.00000320,-0.00000177,-0.00450107,0.00000855,0.00000315,0.00293574
 ,-0.00000107,-0.00000741,-0.00121937,-0.00000255,0.00000631,0.00027975
 ,-0.00000327,-0.00000538,-0.00029403,-0.00000009,0.00000551,-0.0009809
 6,-0.00152947,0.00069549,0.00071559,-0.00000389,-0.00000381,0.00216438
 ,0.25407565,-0.13208881,0.26666311,-0.00233912,-0.00355530,0.00097130,
 -0.00106957,0.00119648,-0.00023812,0.00350741,0.00411351,-0.00559467,0
 .00072763,0.00321068,-0.00055505,0.00067587,-0.00074241,0.00015342,0.0
 1161354,0.00225054,-0.00926898,0.00080029,-0.00077986,0.00153734,-0.26
 815647,-0.13647421,0.00944785,0.63231235,-0.00948942,-0.00138633,0.000
 33128,-0.00561686,-0.00629089,0.00405403,0.01483094,-0.00004497,-0.004
 99320,0.00229519,0.00392187,-0.00001703,0.00104721,-0.00196295,-0.0001
 0337,0.00224663,0.01531182,-0.02208037,0.00474832,-0.00040369,-0.00068
 926,0.12623622,-0.01905577,0.25537810,0.59751725,-0.61292527,0.0101087
 9,0.00403941,0.00093403,0.00578494,0.00374474,-0.00541517,-0.01257307,
 -0.01195814,0.01389007,-0.00293762,-0.00605706,-0.00006732,-0.00229548
 ,0.00318015,-0.00063027,0.00927519,0.02208233,-0.00227592,-0.00885985,
 -0.00293020,0.00071100,-0.25379475,-0.60898609,0.60594621,0.00032864,-
 0.00147230,0.00000187,0.00045747,-0.00078597,0.00000341,0.00088016,0.0
 0226306,0.00000033,-0.00221195,-0.00119381,-0.00000145,0.00039522,0.00
 170477,-0.00000159,-0.00036323,-0.00095878,-0.00000044,0.00016161,0.00
 017379,0.00009356,0.00011532,-0.00003070,-0.00000103,0.00016704,0.0001
 7885,-0.00009457,0.00007588,0.00043860,-0.00179558,0.00000075,0.001378
 61,-0.00025742,0.00000009,0.00061044,0.00076895,0.00000025,-0.00198551
 ,0.00016453,0.00000240,-0.00035862,-0.00021115,-0.00000234,-0.00071334
 ,0.00029077,0.00000007,0.00016138,0.00046052,0.00063666,0.00017416,-0.
 00000104,-0.00000224,0.00016088,0.00046536,-0.00063807,0.00012655,0.00
 011098,0.00000401,0.00000338,0.00017270,0.00000438,0.00000347,-0.00012
 611,0.00000115,0.00000393,-0.00011241,-0.00000152,-0.00000817,-0.00032
 616,0.00000108,-0.00000147,0.00052486,-0.00000477,-0.00000321,-0.00050
 179,-0.00012823,-0.00017326,-0.00016891,-0.00000048,-0.00000057,0.0001
 9197,0.00012608,0.00017119,-0.00016641,-0.00000114,0.00000317,0.000512
 38,-0.58814156,0.42400699,0.03837550,0.00000162,-0.00000004,1.20295834
 ,-0.03426097,0.08687414,-0.00001220,-0.04777770,-0.01187801,0.03709558
 ,-0.00000558,-0.01725747,-0.03125686,0.00000121,-0.00000161,-0.0092521
 5,-0.00002154,-0.00001040,0.04632614,-0.01261478,0.03715451,0.00000052
 ,-0.02909135,-0.01008944,0.00000010,-0.01282832,-0.02325412,0.01848597
 ,0.00000627,-0.03962277,-0.01842888,0.00000723,-0.02027353,0.00481671,
 0.00000045,0.00000018,0.01442413,-0.00000230,-0.00000075,0.00285387,0.
 00000037,0.00000187,0.00708461,0.04803550,-0.14580676,0.00000383,0.090
 06751,0.03710105,0.00000692,0.04215477,0.04533360,0.00000058,-0.144561
 64,-0.03811712,0.02712826,-0.00000249,-0.00573007,0.00564799,0.0000007
 6,0.00330191,-0.00624152,-0.00000134,0.02832821,-0.02126166,0.00000287
 ,0.00000297,-0.04420793,0.00000701,0.00000414,-0.01491409,0.00000067,0
 .00000159,-0.01195768,-0.00000220,-0.00000622,0.03613248,0.00760373,-0
 .02547832,0.00000303,0.01279090,0.01789196,0.00000450,0.00919488,0.014
 62504,0.00000070,-0.02782896,0.00059934,0.00000004,-0.00202098,0.02194
 739,-0.06214488,0.00000684,0.04378265,0.02345346,0.00001126,0.02202077
 ,0.03987951,0.00000141,-0.06944269,-0.00445835,-0.00000300,-0.02325006
 ,-0.02648449,-0.00000372,-0.00000139,0.00071310,0.00001214,0.00000489,
 -0.02054383,-0.00000101,-0.00000846,-0.00277289,-0.00000379,0.00000592
 ,0.00471517,-0.00000402,-0.00000709,0.01360727,0.00587392,-0.01790051,
 0.00000281,0.01066692,-0.00464652,0.00000617,0.00467623,0.00983525,0.0
 0000028,-0.01697583,-0.00156981,-0.00000452,-0.00300065,-0.00515775,-0
 .00000097,-0.00272994,-0.00920626,0.02785219,-0.00000438,-0.02097076,0
 .00410066,-0.00000557,-0.00995363,-0.02106884,-0.00000136,0.02938087,0
 .00576313,-0.00000121,0.00264170,-0.00186716,0.00000640,0.01089704,-0.
 00223386,-0.00000024,0.00000027,0.00250242,0.00000255,0.00000123,-0.01
 403706,0.00000016,-0.00000037,0.00034870,-0.00000089,-0.00000069,0.006
 57328,-0.00000046,-0.00000114,0.00290116,-0.00000085,0.00000042,0.0065
 7053,0.27343016,-0.17281304,-0.30551198,-0.00479213,-0.00547270,0.0009
 7223,-0.00228592,0.00267572,-0.00009612,0.00838981,0.00661795,0.003993
 57,0.00213264,0.00591080,0.00061138,0.00129782,-0.00158661,-0.00082065
 ,-0.27326971,-0.18858900,-0.03771591,-0.73185694,-0.02715422,-0.011005
 36,0.00175376,-0.01260046,-0.01068796,-0.00287111,0.04201994,-0.003012
 49,0.00236590,0.00734523,0.01757035,0.00070594,0.00530754,-0.00729434,
 -0.00089000,0.17254825,0.07467403,-0.30078558,-0.69980646,-0.58007858,
 -0.02004029,-0.00601101,0.00266998,-0.01086086,-0.01024817,-0.00384273
 ,0.02752483,0.00849359,0.01180292,0.00643320,0.01173385,0.00040643,0.0
 0391897,-0.00602242,-0.00120194,0.29189203,0.71343156,0.55265240,0.026
 14232,-0.00960262,-0.00000323,0.00578277,0.00121734,-0.00000418,0.0013
 9052,0.00350884,-0.00000071,-0.00413612,0.00212235,0.00000026,-0.00135
 283,-0.00452739,0.00000348,-0.00038134,0.00159553,0.00000044,-0.001386
 36,0.00745021,0.00911603,-0.02453223,0.01215085,-0.00662172,0.00000083
 ,0.00316433,0.00160939,0.00000194,0.00148209,0.00194331,0.00000023,-0.
 00413793,-0.00056340,-0.00000095,-0.00056854,-0.00231870,-0.00000094,-
 0.00060115,0.00063261,-0.00000020,-0.00121720,0.00237241,0.00256869,-0
 .00899957,0.00071292,-0.00000324,-0.00000171,-0.00685496,0.00000854,0.
 00000317,0.00447018,-0.00000107,-0.00000739,-0.00207180,-0.00000255,0.
 00000624,0.00108834,-0.00000325,-0.00000536,-0.00047871,-0.00000009,0.
 00000549,-0.00151712,0.00121099,0.00182385,0.00131862,0.00000773,0.000
 00191,0.00242396,0.27342920,-0.17281446,0.30551212,-0.00479543,-0.0054
 5646,-0.00097187,-0.00228723,0.00264653,0.00009604,0.00837952,0.006645
 76,-0.00399530,0.00213147,0.00591485,-0.00061038,0.00129128,-0.0016038
 8,0.00082090,-0.00393679,-0.00700094,-0.00772002,-0.00135957,-0.001215
 79,-0.00121470,-0.27327866,-0.18858316,-0.03770964,0.73185339,-0.02715
 961,-0.01099542,-0.00175250,-0.01260121,-0.01070088,0.00286725,0.04201
 423,-0.00300339,-0.00236223,0.00734684,0.01757526,-0.00070610,0.005299
 09,-0.00731129,0.00089110,-0.00700478,-0.02634123,-0.01527694,0.007464
 78,0.00236935,-0.00182336,0.17254435,0.07467227,0.30078385,0.69980456,
 -0.58007741,0.02004156,0.00600935,0.00266993,0.01086098,0.01024954,-0.
 00384235,-0.02752390,-0.00849382,0.01180473,-0.00643380,-0.01173501,0.
 00040447,-0.00391705,0.00602601,-0.00120176,0.00772621,0.01527893,0.01
 620338,-0.00912213,-0.00256983,0.00131873,-0.29189286,-0.71343123,0.55
 265032,0.00049294,-0.00362750,0.00000184,0.00140748,-0.00139558,0.0000
 0343,0.00168733,0.00448411,0.00000033,-0.00353508,-0.00215363,-0.00000
 145,0.00034429,0.00280289,-0.00000160,-0.00071834,-0.00120203,-0.00000
 042,0.00042306,0.00067728,0.00053018,-0.00016048,-0.00006107,-0.000001
 03,0.00042848,0.00068235,-0.00053119,-0.00036353,0.00151618,-0.0047474
 3,0.00000077,0.00407390,-0.00021172,0.00000008,0.00155470,0.00197159,0
 .00000025,-0.00479765,0.00003414,0.00000243,-0.00115842,-0.00120561,-0
 .00000234,-0.00146347,0.00142389,0.00000008,0.00034245,0.00144241,0.00
 114275,-0.00021516,-0.00015166,-0.00000224,0.00034199,0.00144728,-0.00
 114419,-0.00020137,-0.00000696,0.00000395,0.00000328,-0.00012688,0.000
 00438,0.00000352,-0.00024398,0.00000115,0.00000380,-0.00022384,-0.0000
 0153,-0.00000807,-0.00103708,0.00000109,-0.00000149,0.00104831,-0.0000
 0478,-0.00000324,-0.00093800,0.00002213,0.00025785,0.00006848,-0.00000
 047,-0.00000054,0.00030620,-0.00002424,-0.00025986,0.00007092,-0.00000
 114,0.00000318,0.00107597,0.00144208,-0.00029316,-0.00245731,0.0000015
 1,0.00000012,-0.00081106,-0.00117538,0.00768002,-0.00001235,-0.1028426
 1,0.00426233,-0.00216935,-0.00000543,0.02142987,-0.17285725,0.00000128
 ,-0.00000142,0.00270921,-0.00002151,-0.00001060,0.01028822,0.00250843,
 0.00265346,0.00000052,-0.03771884,-0.11037337,0.00000008,0.22697870,-0
 .00053131,-0.00414305,0.00000619,0.03054335,-0.04048329,0.00000737,-0.
 00438755,-0.05753425,0.00000039,0.00000020,-0.00289213,-0.00000231,-0.
 00000073,0.00008220,0.00000039,0.00000184,0.01373775,0.00028272,0.0005
 0280,0.00000394,0.00892802,-0.00485031,0.00000696,0.01175164,-0.008075
 17,0.00000061,-0.00993674,0.00223700,0.00593017,-0.00000246,-0.0391299
 5,0.02100141,0.00000070,-0.03012526,0.05412948,-0.00000133,0.01132522,
 -0.07612596,0.00000287,0.00000282,0.00584320,0.00000698,0.00000428,-0.
 00429715,0.00000065,0.00000151,0.00753017,-0.00000226,-0.00000614,-0.0
 1285955,0.00073136,-0.00188218,0.00000310,0.02246229,-0.01106826,0.000
 00442,-0.00292471,-0.01141021,0.00000070,-0.00180536,0.01104618,0.0000
 0009,-0.01224440,-0.00125239,0.00016108,0.00000688,-0.01188531,0.00541
 699,0.00001122,0.00077990,0.00153420,0.00000146,0.00281926,0.00375038,
 -0.00000302,-0.00084376,0.00652673,-0.00000364,-0.00000150,-0.00257608
 ,0.00001220,0.00000494,0.00163038,-0.00000102,-0.00000848,0.00042783,-
 0.00000386,0.00000596,0.00342216,-0.00000402,-0.00000712,-0.00310295,0
 .00182187,-0.00202127,0.00000279,-0.00143358,-0.12424394,0.00000625,0.
 08347289,-0.01375309,0.00000029,0.01039656,-0.00274371,-0.00000456,0.0
 0230208,0.00218512,-0.00000103,2.18426160,-0.00061668,0.00372763,-0.00
 000462,-0.08974404,0.04994361,-0.00000535,-0.01275820,0.00442395,-0.00
 000143,0.01078039,-0.00169277,-0.00000130,0.01163394,-0.02043199,0.000
 00641,4.20602586,3.89372993,-0.00000022,0.00000028,0.00113059,0.000002
 59,0.00000133,-0.02928482,0.00000015,-0.00000042,0.00183452,-0.0000008
 9,-0.00000067,0.00299185,-0.00000046,-0.00000117,0.00191267,-0.0000008
 7,0.00000037,-1.22215557,-0.00007346,0.00001113,-0.00047627,-0.0003042
 6,-0.00016225,0.00016470,-0.00024174,0.00057509,0.00044705,-0.00031995
 ,-0.00032199,-0.00020130,0.00009075,0.00024195,-0.00002899,-0.00000302
 ,-0.00053436,0.00017772,0.00012483,-0.00003710,-0.00003838,-0.00027139
 ,0.00045664,-0.00006850,0.00063232,0.00013102,-0.00073193,-0.00038087,
 0.00083687,0.00025810,0.00158745,-0.00024609,-0.00045155,-0.00059541,-
 0.00003646,0.00089512,0.00036225,-0.00017242,0.00031241,-0.00019009,0.
 00014227,-0.00045751,0.00028452,0.00000149,0.00010987,-0.00013776,-0.0
 0023938,0.00009847,0.00025212,0.00016925,0.00061142,-0.00019268,-0.000
 28347,-0.00007444,-0.00009357,0.00032426,0.00001009,0.00019970,-0.0002
 0495,0.00006527,-0.00126297,-0.00055903,-0.00000308,0.00145881,0.00145
 439,-0.00000418,0.00057081,-0.00186291,-0.00000073,0.00096869,0.003068
 65,0.00000036,-0.00039899,-0.00025614,0.00000347,-0.00008111,0.0007396
 3,0.00000043,-0.00006339,-0.00022091,-0.00001191,0.00135890,0.00018387
 ,0.00002787,0.00000093,-0.00061643,-0.00034633,0.00000186,-0.00028569,
 0.00010511,0.00000023,-0.00002315,-0.00040861,-0.00000088,0.00006210,0
 .00000372,-0.00000092,0.00014448,-0.00043088,-0.00000019,-0.00001109,0
 .00001730,0.00001172,0.00000210,0.00007305,-0.00000332,-0.00000175,-0.
 00003109,0.00000850,0.00000312,0.00014893,-0.00000104,-0.00000744,0.00
 012782,-0.00000255,0.00000626,-0.00005022,-0.00000322,-0.00000532,-0.0
 0008617,-0.00000006,0.00000551,0.00010281,0.00000690,-0.00004418,-0.00
 001669,-0.00000195,-0.00000264,0.00003488,-0.00007456,0.00000956,0.000
 47631,-0.00030758,-0.00014583,-0.00016446,-0.00024305,0.00054582,-0.00
 044710,-0.00033023,-0.00029409,0.00019957,0.00008964,0.00024605,0.0000
 3000,-0.00000957,-0.00055188,-0.00017747,0.00015949,-0.00002945,-0.000
 09934,-0.00006262,-0.00002216,-0.00000089,0.00014205,-0.00003125,-0.00
 003212,0.00026766,0.00045121,-0.00005852,-0.00063115,0.00013025,-0.000
 74486,0.00037702,0.00083114,0.00026725,-0.00158373,-0.00024446,-0.0004
 4659,0.00059529,-0.00004489,0.00087807,-0.00036115,-0.00003336,0.00028
 690,0.00019216,-0.00021872,0.00000792,0.00004925,-0.00016381,0.0003169
 4,0.00018833,-0.00014434,-0.00045626,-0.00028317,-0.00000314,0.0001099
 6,0.00013790,0.00024078,0.00009883,-0.00025121,-0.00016954,0.00061315,
 0.00019207,0.00028227,-0.00007644,0.00009548,-0.00032062,0.00001022,0.
 00010558,-0.00019016,-0.00008417,0.00001529,-0.00000836,-0.00001985,-0
 .00021007,0.00020094,0.00006632,-0.00420965,-0.00610891,0.00000189,0.1
 1093113,0.22371153,0.00000345,-0.28415798,0.00831465,0.00000031,-0.019
 94588,0.04498283,-0.00000143,-0.00830816,0.00796679,-0.00000161,-2.280
 72766,-4.12498265,-0.00000042,0.00063331,-0.00067829,-0.00000250,-0.00
 247463,0.00056123,-0.00000106,0.00063871,-0.00067323,0.00000146,2.4876
 2696,-0.00392756,-0.00100861,0.00000080,0.08081475,0.13963005,0.,0.154
 23114,0.04341366,0.00000026,-0.01415419,-0.00707677,0.00000244,0.00294
 753,0.00393640,-0.00000232,-4.06551239,-3.93104572,0.00000008,0.000408
 16,-0.00047757,-0.00010792,-0.00213352,0.00094663,-0.00000223,0.000407
 74,-0.00047271,0.00010650,3.84691152,3.75215056,0.00000406,0.00000340,
 -0.00245878,0.00000441,0.00000333,0.01850218,0.00000114,0.00000393,-0.
 02104542,-0.00000156,-0.00000813,-0.00380491,0.00000104,-0.00000146,-0
 .00147648,-0.00000474,-0.00000309,1.24344784,-0.00039530,-0.00089532,-
 0.00026334,-0.00000048,-0.00000062,-0.00020805,0.00039314,0.00089324,-
 0.00026081,-0.00000116,0.00000314,-1.23243212\\@


 WERE I TO AWAIT PERFECTION, MY BOOK WOULD NEVER BE FINISHED.
                                    -- HISTORY OF CHINESE WRITING

                                       TAI T'UNG, 13TH CENTURY
 Job cpu time:       0 days 19 hours 52 minutes 42.4 seconds.
 Elapsed time:       0 days  2 hours 37 minutes 15.5 seconds.
 File lengths (MBytes):  RWF=     98 Int=      0 D2E=      0 Chk=     43 Scr=      1
 Normal termination of Gaussian 16 at Mon May 27 18:35:12 2024.
