 Entering Gaussian System, Link 0=/home/ely/Documents/g16/g16rheticus/g16_a03/cpu/g16/g16
 Initial command:
 /home/ely/Documents/g16/g16rheticus/g16_a03/cpu/g16/l1.exe "/tmp/Gau-1259754.inp" -scrdir="/tmp/"
 Entering Link 1 = /home/ely/Documents/g16/g16rheticus/g16_a03/cpu/g16/l1.exe PID=   1259756.
  
 Copyright (c) 1988,1990,1992,1993,1995,1998,2003,2009,2016,
            Gaussian, Inc.  All Rights Reserved.
  
 This is part of the Gaussian(R) 16 program.  It is based on
 the Gaussian(R) 09 system (copyright 2009, Gaussian, Inc.),
 the Gaussian(R) 03 system (copyright 2003, Gaussian, Inc.),
 the Gaussian(R) 98 system (copyright 1998, Gaussian, Inc.),
 the Gaussian(R) 94 system (copyright 1995, Gaussian, Inc.),
 the Gaussian 92(TM) system (copyright 1992, Gaussian, Inc.),
 the Gaussian 90(TM) system (copyright 1990, Gaussian, Inc.),
 the Gaussian 88(TM) system (copyright 1988, Gaussian, Inc.),
 the Gaussian 86(TM) system (copyright 1986, Carnegie Mellon
 University), and the Gaussian 82(TM) system (copyright 1983,
 Carnegie Mellon University). Gaussian is a federally registered
 trademark of Gaussian, Inc.
  
 This software contains proprietary and confidential information,
 including trade secrets, belonging to Gaussian, Inc.
  
 This software is provided under written license and may be
 used, copied, transmitted, or stored only in accord with that
 written license.
  
 The following legend is applicable only to US Government
 contracts under FAR:
  
                    RESTRICTED RIGHTS LEGEND
  
 Use, reproduction and disclosure by the US Government is
 subject to restrictions as set forth in subparagraphs (a)
 and (c) of the Commercial Computer Software - Restricted
 Rights clause in FAR 52.227-19.
  
 Gaussian, Inc.
 340 Quinnipiac St., Bldg. 40, Wallingford CT 06492
  
  
 ---------------------------------------------------------------
 Warning -- This program may not be used in any manner that
 competes with the business of Gaussian, Inc. or will provide
 assistance to any competitor of Gaussian, Inc.  The licensee
 of this program is prohibited from giving any competitor of
 Gaussian, Inc. access to this program.  By using this program,
 the user acknowledges that Gaussian, Inc. is engaged in the
 business of creating and licensing software in the field of
 computational chemistry and represents and warrants to the
 licensee that it is not a competitor of Gaussian, Inc. and that
 it will not use this program in any manner prohibited above.
 ---------------------------------------------------------------
  

 Cite this work as:
 Gaussian 16, Revision A.03,
 M. J. Frisch, G. W. Trucks, H. B. Schlegel, G. E. Scuseria, 
 M. A. Robb, J. R. Cheeseman, G. Scalmani, V. Barone, 
 G. A. Petersson, H. Nakatsuji, X. Li, M. Caricato, A. V. Marenich, 
 J. Bloino, B. G. Janesko, R. Gomperts, B. Mennucci, H. P. Hratchian, 
 J. V. Ortiz, A. F. Izmaylov, J. L. Sonnenberg, D. Williams-Young, 
 F. Ding, F. Lipparini, F. Egidi, J. Goings, B. Peng, A. Petrone, 
 T. Henderson, D. Ranasinghe, V. G. Zakrzewski, J. Gao, N. Rega, 
 G. Zheng, W. Liang, M. Hada, M. Ehara, K. Toyota, R. Fukuda, 
 J. Hasegawa, M. Ishida, T. Nakajima, Y. Honda, O. Kitao, H. Nakai, 
 T. Vreven, K. Throssell, J. A. Montgomery, Jr., J. E. Peralta, 
 F. Ogliaro, M. J. Bearpark, J. J. Heyd, E. N. Brothers, K. N. Kudin, 
 V. N. Staroverov, T. A. Keith, R. Kobayashi, J. Normand, 
 K. Raghavachari, A. P. Rendell, J. C. Burant, S. S. Iyengar, 
 J. Tomasi, M. Cossi, J. M. Millam, M. Klene, C. Adamo, R. Cammi, 
 J. W. Ochterski, R. L. Martin, K. Morokuma, O. Farkas, 
 J. B. Foresman, and D. J. Fox, Gaussian, Inc., Wallingford CT, 2016.
 
 ******************************************
 Gaussian 16:  ES64L-G16RevA.03 25-Dec-2016
                27-May-2024 
 ******************************************
 %chk="freq.chk"
 %nproc=16
 Will use up to   16 processors via shared memory.
 %mem=4GB
 ------------------
 #p wB97XD gen freq
 ------------------
 1/10=4,30=1,38=1/1,3;
 2/12=2,17=6,18=5,40=1/2;
 3/5=7,11=2,25=1,30=1,71=2,74=-58,140=1/1,2,3;
 4//1;
 5/5=2,38=5,98=1/2;
 8/6=4,10=90,11=11/1;
 11/6=1,8=1,9=11,15=111,16=1/1,2,10;
 10/6=1/2;
 6/7=2,8=2,9=2,10=2,28=1/1;
 7/8=1,10=1,25=1/1,2,3,16;
 1/10=4,30=1/3;
 99//99;
 Leave Link    1 at Mon May 27 10:32:24 2024, MaxMem=   536870912 cpu:               0.9 elap:               0.2
 (Enter /home/ely/Documents/g16/g16rheticus/g16_a03/cpu/g16/l101.exe)
 -------
 3bp PES
 -------
 Symbolic Z-matrix:
 Charge =  0 Multiplicity = 1
 C                     0.00388  -0.76298   0. 
 C                    -2.41438   0.0989    0. 
 O                    -0.57052   1.59423   0. 
 C                    -0.90488   0.43491   0. 
 O                    -2.82496  -1.02916   0. 
 O                    -3.17435   1.18473   0. 
 H                    -0.21416  -1.38039  -0.88255 
 Br                    1.87388  -0.3094    0. 
 H                    -0.21416  -1.38039   0.88255 
 H                    -2.56364   1.94686   0. 
 
 ITRead=  0  0  0  0  0  0  0  0  0  0
 MicOpt= -1 -1 -1 -1 -1 -1 -1 -1 -1 -1
 NAtoms=     10 NQM=       10 NQMF=       0 NMMI=      0 NMMIF=      0
                NMic=       0 NMicF=      0.
                    Isotopes and Nuclear Properties:
 (Nuclear quadrupole moments (NQMom) in fm**2, nuclear magnetic moments (NMagM)
  in nuclear magnetons)

  Atom         1           2           3           4           5           6           7           8           9          10
 IAtWgt=          12          12          16          12          16          16           1          79           1           1
 AtmWgt=  12.0000000  12.0000000  15.9949146  12.0000000  15.9949146  15.9949146   1.0078250  78.9183361   1.0078250   1.0078250
 NucSpn=           0           0           0           0           0           0           1           3           1           1
 AtZEff=  -0.0000000  -0.0000000  -0.0000000  -0.0000000  -0.0000000  -0.0000000  -0.0000000  -0.0000000  -0.0000000  -0.0000000
 NQMom=    0.0000000   0.0000000   0.0000000   0.0000000   0.0000000   0.0000000   0.0000000  31.3000000   0.0000000   0.0000000
 NMagM=    0.0000000   0.0000000   0.0000000   0.0000000   0.0000000   0.0000000   2.7928460   2.1063990   2.7928460   2.7928460
 AtZNuc=   6.0000000   6.0000000   8.0000000   6.0000000   8.0000000   8.0000000   1.0000000  35.0000000   1.0000000   1.0000000
 Leave Link  101 at Mon May 27 10:32:24 2024, MaxMem=   536870912 cpu:               3.9 elap:               0.7
 (Enter /home/ely/Documents/g16/g16rheticus/g16_a03/cpu/g16/l103.exe)

 GradGradGradGradGradGradGradGradGradGradGradGradGradGradGradGradGradGrad
 Berny optimization.
 Initialization pass.
 Trust Radius=3.00D-01 FncErr=1.00D-07 GrdErr=1.00D-07 EigMax=2.50D+02 EigMin=1.00D-04
 Number of steps in this run=      2 maximum allowed number of steps=      2.
 GradGradGradGradGradGradGradGradGradGradGradGradGradGradGradGradGradGrad

 Leave Link  103 at Mon May 27 10:32:25 2024, MaxMem=   536870912 cpu:               0.4 elap:               0.1
 (Enter /home/ely/Documents/g16/g16rheticus/g16_a03/cpu/g16/l202.exe)
                          Input orientation:                          
 ---------------------------------------------------------------------
 Center     Atomic      Atomic             Coordinates (Angstroms)
 Number     Number       Type             X           Y           Z
 ---------------------------------------------------------------------
      1          6           0        0.003875   -0.762978    0.000000
      2          6           0       -2.414376    0.098899    0.000000
      3          8           0       -0.570516    1.594229    0.000000
      4          6           0       -0.904880    0.434915    0.000000
      5          8           0       -2.824961   -1.029160    0.000000
      6          8           0       -3.174353    1.184732    0.000000
      7          1           0       -0.214165   -1.380394   -0.882550
      8         35           0        1.873884   -0.309404    0.000000
      9          1           0       -0.214165   -1.380394    0.882550
     10          1           0       -2.563643    1.946858    0.000000
 ---------------------------------------------------------------------
                    Distance matrix (angstroms):
                    1          2          3          4          5
     1  C    0.000000
     2  C    2.567249   0.000000
     3  O    2.426181   2.373991   0.000000
     4  C    1.503590   1.546442   1.206569   0.000000
     5  O    2.841332   1.200457   3.459002   2.414586   0.000000
     6  O    3.727561   1.325367   2.635841   2.390133   2.241293
     7  H    1.098926   2.794303   3.123182   2.133384   2.778222
     8  Br   1.924231   4.307654   3.098211   2.876724   4.753651
     9  H    1.098926   2.794303   3.123182   2.133384   2.778222
    10  H    3.733010   1.853977   2.024081   2.244430   2.987469
                    6          7          8          9         10
     6  O    0.000000
     7  H    4.015156   0.000000
     8  Br   5.264707   2.507162   0.000000
     9  H    4.015156   1.765100   2.507162   0.000000
    10  H    0.976628   4.167679   4.978189   4.167679   0.000000
 Stoichiometry    C3H3BrO3
 Framework group  CS[SG(C3HBrO3),X(H2)]
 Deg. of freedom    16
 Full point group                 CS      NOp   2
 Largest Abelian subgroup         CS      NOp   2
 Largest concise Abelian subgroup CS      NOp   2
                         Standard orientation:                         
 ---------------------------------------------------------------------
 Center     Atomic      Atomic             Coordinates (Angstroms)
 Number     Number       Type             X           Y           Z
 ---------------------------------------------------------------------
      1          6           0        0.000000    0.785581    0.000000
      2          6           0       -2.246967   -0.456155    0.000000
      3          8           0       -0.185489   -1.633499    0.000000
      4          6           0       -0.702996   -0.543547    0.000000
      5          8           0       -2.834635    0.590623    0.000000
      6          8           0       -2.821274   -1.650630    0.000000
      7          1           0       -0.315050    1.359590    0.882550
      8         35           0        1.918754    0.640501    0.000000
      9          1           0       -0.315050    1.359590   -0.882550
     10          1           0       -2.095316   -2.303920    0.000000
 ---------------------------------------------------------------------
 Rotational constants (GHZ):           5.4264129           0.7517457           0.6629947
 Leave Link  202 at Mon May 27 10:32:25 2024, MaxMem=   536870912 cpu:               1.6 elap:               0.3
 (Enter /home/ely/Documents/g16/g16rheticus/g16_a03/cpu/g16/l301.exe)
 General basis read from cards:  (5D, 7F)
 Centers:       7      9     10      1      2      4      3      5      6
 cc-pvdz
 ****
 Centers:       8
 aug-cc-pvdz
 ****
 Ernie: Thresh=  0.10000D-02 Tol=  0.10000D-05 Strict=F.
 Ernie:  35 primitive shells out of 240 were deleted.
 There are   103 symmetry adapted cartesian basis functions of A'  symmetry.
 There are    41 symmetry adapted cartesian basis functions of A"  symmetry.
 There are    94 symmetry adapted basis functions of A'  symmetry.
 There are    41 symmetry adapted basis functions of A"  symmetry.
   135 basis functions,   376 primitive gaussians,   144 cartesian basis functions
    40 alpha electrons       40 beta electrons
       nuclear repulsion energy       468.6865652098 Hartrees.
 IExCor= 4639 DFT=T Ex+Corr=wB97XD ExCW=0 ScaHFX=  1.000000
 ScaDFX=  1.000000  1.000000  1.000000  1.000000 ScalE2=  1.000000  1.000000
 IRadAn=      5 IRanWt=     -1 IRanGd=            0 ICorTp=0 IEmpDi=121
 HFx  wShort=  0.000000 wLong=  0.200000 cFull=  0.222036 cShort=  0.000000 cLong=  0.777964
 DFx  wShort=  0.000000 wLong=  0.200000 cFull=  0.000000 cShort=  0.000000 cLong=  1.000000
 NAtoms=   10 NActive=   10 NUniq=    9 SFac= 1.23D+00 NAtFMM=   60 NAOKFM=F Big=F
 Integral buffers will be    131072 words long.
 Raffenetti 2 integral format.
 Two-electron integral symmetry is turned on.
 R6Disp:  Grimme-D2 Dispersion energy=       -0.0032884901 Hartrees.
 Nuclear repulsion after empirical dispersion term =      468.6832767196 Hartrees.
 Leave Link  301 at Mon May 27 10:32:25 2024, MaxMem=   536870912 cpu:               1.1 elap:               0.2
 (Enter /home/ely/Documents/g16/g16rheticus/g16_a03/cpu/g16/l302.exe)
 NPDir=0 NMtPBC=     1 NCelOv=     1 NCel=       1 NClECP=     1 NCelD=      1
         NCelK=      1 NCelE2=     1 NClLst=     1 CellRange=     0.0.
 One-electron integrals computed using PRISM.
 One-electron integral symmetry used in STVInt
 NBasis=   135 RedAO= T EigKep=  2.36D-03  NBF=    94    41
 NBsUse=   135 1.00D-06 EigRej= -1.00D+00 NBFU=    94    41
 Precomputing XC quadrature grid using
 IXCGrd= 4 IRadAn=           5 IRanWt=          -1 IRanGd=           0 AccXCQ= 0.00D+00.
 Generated NRdTot=       0 NPtTot=           0 NUsed=           0 NTot=          32
 NSgBfM=   144   144   144   144   144 MxSgAt=    10 MxSgA2=    10.
 Leave Link  302 at Mon May 27 10:32:29 2024, MaxMem=   536870912 cpu:              28.3 elap:               4.1
 (Enter /home/ely/Documents/g16/g16rheticus/g16_a03/cpu/g16/l303.exe)
 DipDrv:  MaxL=1.
 Leave Link  303 at Mon May 27 10:32:30 2024, MaxMem=   536870912 cpu:               3.1 elap:               0.6
 (Enter /home/ely/Documents/g16/g16rheticus/g16_a03/cpu/g16/l401.exe)
 ExpMin= 4.10D-02 ExpMax= 6.40D+05 ExpMxC= 6.18D+03 IAcc=3 IRadAn=         5 AccDes= 0.00D+00
 Harris functional with IExCor= 4639 and IRadAn=       5 diagonalized for initial guess.
 HarFok:  IExCor= 4639 AccDes= 0.00D+00 IRadAn=         5 IDoV= 1 UseB2=F ITyADJ=14
 ICtDFT=  3500011 ScaDFX=  1.000000  1.000000  1.000000  1.000000
 FoFCou: FMM=F IPFlag=           0 FMFlag=      100000 FMFlg1=           0
         NFxFlg=           0 DoJE=T BraDBF=F KetDBF=T FulRan=T
         wScrn=  0.000000 ICntrl=       500 IOpCl=  0 I1Cent=   200000004 NGrid=           0
         NMat0=    1 NMatS0=      1 NMatT0=    0 NMatD0=    1 NMtDS0=    0 NMtDT0=    0
 Petite list used in FoFCou.
 Harris En= -2880.29862137955    
 JPrj=0 DoOrth=F DoCkMO=F.
 Initial guess orbital symmetries:
       Occupied  (A') (A') (A') (A') (A") (A') (A') (A') (A') (A')
                 (A') (A') (A') (A') (A") (A') (A') (A") (A') (A")
                 (A') (A') (A') (A') (A') (A') (A') (A') (A") (A')
                 (A') (A") (A') (A") (A') (A') (A") (A') (A") (A')
       Virtual   (A") (A') (A') (A") (A') (A') (A") (A') (A') (A")
                 (A') (A') (A") (A") (A') (A') (A') (A') (A') (A')
                 (A") (A') (A') (A') (A") (A") (A') (A') (A') (A")
                 (A') (A') (A') (A") (A') (A') (A') (A") (A') (A')
                 (A") (A") (A') (A') (A") (A') (A') (A") (A") (A')
                 (A") (A') (A') (A") (A') (A') (A") (A') (A") (A')
                 (A") (A') (A') (A") (A') (A') (A") (A') (A') (A')
                 (A') (A") (A') (A') (A') (A') (A') (A') (A") (A')
                 (A") (A') (A") (A') (A") (A") (A") (A') (A") (A')
                 (A') (A') (A') (A') (A')
 The electronic state of the initial guess is 1-A'.
 Leave Link  401 at Mon May 27 10:32:33 2024, MaxMem=   536870912 cpu:              23.6 elap:               3.4
 (Enter /home/ely/Documents/g16/g16rheticus/g16_a03/cpu/g16/l502.exe)
 Keep R1 ints in memory in symmetry-blocked form, NReq=127531751.
 FoFCou: FMM=F IPFlag=           0 FMFlag=           0 FMFlg1=           0
         NFxFlg=           0 DoJE=F BraDBF=F KetDBF=F FulRan=T
         wScrn=  0.000000 ICntrl=       600 IOpCl=  0 I1Cent=           0 NGrid=           0
         NMat0=    1 NMatS0=   9180 NMatT0=    0 NMatD0=    1 NMtDS0=    0 NMtDT0=    0
 Petite list used in FoFCou.
 Closed shell SCF:
 Using DIIS extrapolation, IDIIS=  1040.
 NGot=   536870912 LenX=   515190813 LenY=   515169636
 Requested convergence on RMS density matrix=1.00D-08 within 128 cycles.
 Requested convergence on MAX density matrix=1.00D-06.
 Requested convergence on             energy=1.00D-06.
 No special actions if energy rises.

 Cycle   1  Pass 1  IDiag  1:
 E= -2915.64947140531    
 DIIS: error= 7.16D-02 at cycle   1 NSaved=   1.
 NSaved= 1 IEnMin= 1 EnMin= -2915.64947140531     IErMin= 1 ErrMin= 7.16D-02
 ErrMax= 7.16D-02  0.00D+00 EMaxC= 1.00D-01 BMatC= 6.64D-01 BMatP= 6.64D-01
 IDIUse=3 WtCom= 2.84D-01 WtEn= 7.16D-01
 Coeff-Com:  0.100D+01
 Coeff-En:   0.100D+01
 Coeff:      0.100D+01
 Gap=     0.329 Goal=   None    Shift=    0.000
 GapD=    0.329 DampG=1.000 DampE=0.500 DampFc=0.5000 IDamp=-1.
 Damping current iteration by 5.00D-01
 RMSDP=6.24D-03 MaxDP=2.34D-01              OVMax= 1.27D-01

 Cycle   2  Pass 1  IDiag  1:
 E= -2915.78628501443     Delta-E=       -0.136813609121 Rises=F Damp=T
 DIIS: error= 2.45D-02 at cycle   2 NSaved=   2.
 NSaved= 2 IEnMin= 2 EnMin= -2915.78628501443     IErMin= 2 ErrMin= 2.45D-02
 ErrMax= 2.45D-02  0.00D+00 EMaxC= 1.00D-01 BMatC= 8.21D-02 BMatP= 6.64D-01
 IDIUse=3 WtCom= 7.55D-01 WtEn= 2.45D-01
 Coeff-Com: -0.430D+00 0.143D+01
 Coeff-En:   0.000D+00 0.100D+01
 Coeff:     -0.325D+00 0.133D+01
 Gap=     0.354 Goal=   None    Shift=    0.000
 RMSDP=1.73D-03 MaxDP=3.36D-02 DE=-1.37D-01 OVMax= 7.13D-02

 Cycle   3  Pass 1  IDiag  1:
 E= -2915.88929858151     Delta-E=       -0.103013567079 Rises=F Damp=F
 DIIS: error= 7.65D-03 at cycle   3 NSaved=   3.
 NSaved= 3 IEnMin= 3 EnMin= -2915.88929858151     IErMin= 3 ErrMin= 7.65D-03
 ErrMax= 7.65D-03  0.00D+00 EMaxC= 1.00D-01 BMatC= 1.80D-02 BMatP= 8.21D-02
 IDIUse=3 WtCom= 9.24D-01 WtEn= 7.65D-02
 Coeff-Com: -0.225D+00 0.674D+00 0.551D+00
 Coeff-En:   0.000D+00 0.000D+00 0.100D+01
 Coeff:     -0.207D+00 0.622D+00 0.585D+00
 Gap=     0.340 Goal=   None    Shift=    0.000
 RMSDP=9.41D-04 MaxDP=2.93D-02 DE=-1.03D-01 OVMax= 4.82D-02

 Cycle   4  Pass 1  IDiag  1:
 E= -2915.90147577961     Delta-E=       -0.012177198098 Rises=F Damp=F
 DIIS: error= 3.12D-03 at cycle   4 NSaved=   4.
 NSaved= 4 IEnMin= 4 EnMin= -2915.90147577961     IErMin= 4 ErrMin= 3.12D-03
 ErrMax= 3.12D-03  0.00D+00 EMaxC= 1.00D-01 BMatC= 2.46D-03 BMatP= 1.80D-02
 IDIUse=3 WtCom= 9.69D-01 WtEn= 3.12D-02
 Coeff-Com: -0.325D-01 0.807D-01 0.285D+00 0.666D+00
 Coeff-En:   0.000D+00 0.000D+00 0.890D-01 0.911D+00
 Coeff:     -0.314D-01 0.782D-01 0.279D+00 0.674D+00
 Gap=     0.339 Goal=   None    Shift=    0.000
 RMSDP=2.89D-04 MaxDP=7.76D-03 DE=-1.22D-02 OVMax= 1.15D-02

 Cycle   5  Pass 1  IDiag  1:
 E= -2915.90326878935     Delta-E=       -0.001793009743 Rises=F Damp=F
 DIIS: error= 4.75D-04 at cycle   5 NSaved=   5.
 NSaved= 5 IEnMin= 5 EnMin= -2915.90326878935     IErMin= 5 ErrMin= 4.75D-04
 ErrMax= 4.75D-04  0.00D+00 EMaxC= 1.00D-01 BMatC= 5.51D-05 BMatP= 2.46D-03
 IDIUse=3 WtCom= 9.95D-01 WtEn= 4.75D-03
 Coeff-Com: -0.674D-03-0.514D-03 0.818D-01 0.253D+00 0.666D+00
 Coeff-En:   0.000D+00 0.000D+00 0.000D+00 0.000D+00 0.100D+01
 Coeff:     -0.670D-03-0.511D-03 0.814D-01 0.252D+00 0.668D+00
 Gap=     0.338 Goal=   None    Shift=    0.000
 RMSDP=5.58D-05 MaxDP=1.71D-03 DE=-1.79D-03 OVMax= 2.29D-03

 Cycle   6  Pass 1  IDiag  1:
 E= -2915.90332159707     Delta-E=       -0.000052807723 Rises=F Damp=F
 DIIS: error= 1.81D-04 at cycle   6 NSaved=   6.
 NSaved= 6 IEnMin= 6 EnMin= -2915.90332159707     IErMin= 6 ErrMin= 1.81D-04
 ErrMax= 1.81D-04  0.00D+00 EMaxC= 1.00D-01 BMatC= 4.36D-06 BMatP= 5.51D-05
 IDIUse=3 WtCom= 9.98D-01 WtEn= 1.81D-03
 Coeff-Com:  0.427D-02-0.107D-01-0.600D-02 0.374D-02 0.209D+00 0.800D+00
 Coeff-En:   0.000D+00 0.000D+00 0.000D+00 0.000D+00 0.000D+00 0.100D+01
 Coeff:      0.426D-02-0.107D-01-0.599D-02 0.373D-02 0.209D+00 0.800D+00
 Gap=     0.338 Goal=   None    Shift=    0.000
 RMSDP=2.32D-05 MaxDP=5.15D-04 DE=-5.28D-05 OVMax= 7.90D-04

 Cycle   7  Pass 1  IDiag  1:
 E= -2915.90332736378     Delta-E=       -0.000005766707 Rises=F Damp=F
 DIIS: error= 4.12D-05 at cycle   7 NSaved=   7.
 NSaved= 7 IEnMin= 7 EnMin= -2915.90332736378     IErMin= 7 ErrMin= 4.12D-05
 ErrMax= 4.12D-05  0.00D+00 EMaxC= 1.00D-01 BMatC= 4.94D-07 BMatP= 4.36D-06
 IDIUse=1 WtCom= 1.00D+00 WtEn= 0.00D+00
 Coeff-Com:  0.119D-02-0.289D-02-0.890D-02-0.235D-01-0.260D-02 0.237D+00
 Coeff-Com:  0.800D+00
 Coeff:      0.119D-02-0.289D-02-0.890D-02-0.235D-01-0.260D-02 0.237D+00
 Coeff:      0.800D+00
 Gap=     0.338 Goal=   None    Shift=    0.000
 RMSDP=9.73D-06 MaxDP=1.83D-04 DE=-5.77D-06 OVMax= 2.79D-04

 Cycle   8  Pass 1  IDiag  1:
 E= -2915.90332793750     Delta-E=       -0.000000573718 Rises=F Damp=F
 DIIS: error= 3.23D-05 at cycle   8 NSaved=   8.
 NSaved= 8 IEnMin= 8 EnMin= -2915.90332793750     IErMin= 8 ErrMin= 3.23D-05
 ErrMax= 3.23D-05  0.00D+00 EMaxC= 1.00D-01 BMatC= 1.58D-07 BMatP= 4.94D-07
 IDIUse=1 WtCom= 1.00D+00 WtEn= 0.00D+00
 Coeff-Com: -0.494D-04 0.175D-03-0.390D-02-0.141D-01-0.340D-01-0.377D-03
 Coeff-Com:  0.414D+00 0.638D+00
 Coeff:     -0.494D-04 0.175D-03-0.390D-02-0.141D-01-0.340D-01-0.377D-03
 Coeff:      0.414D+00 0.638D+00
 Gap=     0.338 Goal=   None    Shift=    0.000
 RMSDP=3.32D-06 MaxDP=9.01D-05 DE=-5.74D-07 OVMax= 1.88D-04

 Cycle   9  Pass 1  IDiag  1:
 E= -2915.90332810904     Delta-E=       -0.000000171538 Rises=F Damp=F
 DIIS: error= 7.15D-06 at cycle   9 NSaved=   9.
 NSaved= 9 IEnMin= 9 EnMin= -2915.90332810904     IErMin= 9 ErrMin= 7.15D-06
 ErrMax= 7.15D-06  0.00D+00 EMaxC= 1.00D-01 BMatC= 1.45D-08 BMatP= 1.58D-07
 IDIUse=1 WtCom= 1.00D+00 WtEn= 0.00D+00
 Coeff-Com: -0.160D-03 0.397D-03-0.364D-03-0.271D-02-0.114D-01-0.217D-01
 Coeff-Com:  0.514D-01 0.260D+00 0.724D+00
 Coeff:     -0.160D-03 0.397D-03-0.364D-03-0.271D-02-0.114D-01-0.217D-01
 Coeff:      0.514D-01 0.260D+00 0.724D+00
 Gap=     0.338 Goal=   None    Shift=    0.000
 RMSDP=1.12D-06 MaxDP=2.45D-05 DE=-1.72D-07 OVMax= 4.28D-05

 Cycle  10  Pass 1  IDiag  1:
 E= -2915.90332812401     Delta-E=       -0.000000014977 Rises=F Damp=F
 DIIS: error= 2.56D-06 at cycle  10 NSaved=  10.
 NSaved=10 IEnMin=10 EnMin= -2915.90332812401     IErMin=10 ErrMin= 2.56D-06
 ErrMax= 2.56D-06  0.00D+00 EMaxC= 1.00D-01 BMatC= 1.68D-09 BMatP= 1.45D-08
 IDIUse=1 WtCom= 1.00D+00 WtEn= 0.00D+00
 Coeff-Com: -0.512D-04 0.126D-03 0.346D-03 0.630D-03-0.397D-03-0.877D-02
 Coeff-Com: -0.420D-01 0.361D-01 0.277D+00 0.737D+00
 Coeff:     -0.512D-04 0.126D-03 0.346D-03 0.630D-03-0.397D-03-0.877D-02
 Coeff:     -0.420D-01 0.361D-01 0.277D+00 0.737D+00
 Gap=     0.338 Goal=   None    Shift=    0.000
 RMSDP=4.42D-07 MaxDP=9.58D-06 DE=-1.50D-08 OVMax= 2.11D-05

 Cycle  11  Pass 1  IDiag  1:
 E= -2915.90332812620     Delta-E=       -0.000000002185 Rises=F Damp=F
 DIIS: error= 8.94D-07 at cycle  11 NSaved=  11.
 NSaved=11 IEnMin=11 EnMin= -2915.90332812620     IErMin=11 ErrMin= 8.94D-07
 ErrMax= 8.94D-07  0.00D+00 EMaxC= 1.00D-01 BMatC= 2.35D-10 BMatP= 1.68D-09
 IDIUse=1 WtCom= 1.00D+00 WtEn= 0.00D+00
 Coeff-Com:  0.152D-04-0.352D-04 0.171D-03 0.631D-03 0.184D-02 0.183D-02
 Coeff-Com: -0.242D-01-0.259D-01-0.473D-01 0.255D+00 0.838D+00
 Coeff:      0.152D-04-0.352D-04 0.171D-03 0.631D-03 0.184D-02 0.183D-02
 Coeff:     -0.242D-01-0.259D-01-0.473D-01 0.255D+00 0.838D+00
 Gap=     0.338 Goal=   None    Shift=    0.000
 RMSDP=1.78D-07 MaxDP=3.23D-06 DE=-2.19D-09 OVMax= 9.33D-06

 Cycle  12  Pass 1  IDiag  1:
 E= -2915.90332812653     Delta-E=       -0.000000000332 Rises=F Damp=F
 DIIS: error= 1.92D-07 at cycle  12 NSaved=  12.
 NSaved=12 IEnMin=12 EnMin= -2915.90332812653     IErMin=12 ErrMin= 1.92D-07
 ErrMax= 1.92D-07  0.00D+00 EMaxC= 1.00D-01 BMatC= 1.08D-11 BMatP= 2.35D-10
 IDIUse=1 WtCom= 1.00D+00 WtEn= 0.00D+00
 Coeff-Com:  0.741D-05-0.177D-04 0.285D-04 0.136D-03 0.565D-03 0.110D-02
 Coeff-Com: -0.497D-02-0.868D-02-0.324D-01 0.306D-01 0.233D+00 0.780D+00
 Coeff:      0.741D-05-0.177D-04 0.285D-04 0.136D-03 0.565D-03 0.110D-02
 Coeff:     -0.497D-02-0.868D-02-0.324D-01 0.306D-01 0.233D+00 0.780D+00
 Gap=     0.338 Goal=   None    Shift=    0.000
 RMSDP=4.07D-08 MaxDP=5.99D-07 DE=-3.32D-10 OVMax= 2.34D-06

 Cycle  13  Pass 1  IDiag  1:
 E= -2915.90332812655     Delta-E=       -0.000000000019 Rises=F Damp=F
 DIIS: error= 4.66D-08 at cycle  13 NSaved=  13.
 NSaved=13 IEnMin=13 EnMin= -2915.90332812655     IErMin=13 ErrMin= 4.66D-08
 ErrMax= 4.66D-08  0.00D+00 EMaxC= 1.00D-01 BMatC= 8.50D-13 BMatP= 1.08D-11
 IDIUse=1 WtCom= 1.00D+00 WtEn= 0.00D+00
 Coeff-Com: -0.109D-05 0.236D-05-0.195D-04-0.730D-04-0.154D-03-0.195D-04
 Coeff-Com:  0.252D-02 0.255D-02 0.149D-02-0.307D-01-0.805D-01 0.102D+00
 Coeff-Com:  0.100D+01
 Coeff:     -0.109D-05 0.236D-05-0.195D-04-0.730D-04-0.154D-03-0.195D-04
 Coeff:      0.252D-02 0.255D-02 0.149D-02-0.307D-01-0.805D-01 0.102D+00
 Coeff:      0.100D+01
 Gap=     0.338 Goal=   None    Shift=    0.000
 RMSDP=1.81D-08 MaxDP=2.87D-07 DE=-1.86D-11 OVMax= 1.05D-06

 Cycle  14  Pass 1  IDiag  1:
 E= -2915.90332812654     Delta-E=        0.000000000010 Rises=F Damp=F
 DIIS: error= 1.68D-08 at cycle  14 NSaved=  14.
 NSaved=14 IEnMin=13 EnMin= -2915.90332812655     IErMin=14 ErrMin= 1.68D-08
 ErrMax= 1.68D-08  0.00D+00 EMaxC= 1.00D-01 BMatC= 2.93D-14 BMatP= 8.50D-13
 IDIUse=1 WtCom= 1.00D+00 WtEn= 0.00D+00
 Coeff-Com: -0.512D-06 0.120D-05-0.310D-05-0.146D-04-0.454D-04-0.626D-04
 Coeff-Com:  0.485D-03 0.670D-03 0.210D-02-0.477D-02-0.207D-01-0.289D-01
 Coeff-Com:  0.918D-01 0.959D+00
 Coeff:     -0.512D-06 0.120D-05-0.310D-05-0.146D-04-0.454D-04-0.626D-04
 Coeff:      0.485D-03 0.670D-03 0.210D-02-0.477D-02-0.207D-01-0.289D-01
 Coeff:      0.918D-01 0.959D+00
 Gap=     0.338 Goal=   None    Shift=    0.000
 RMSDP=3.46D-09 MaxDP=5.39D-08 DE= 1.00D-11 OVMax= 2.13D-07

 SCF Done:  E(RwB97XD) =  -2915.90332813     A.U. after   14 cycles
            NFock= 14  Conv=0.35D-08     -V/T= 2.0019
 KE= 2.910402216906D+03 PE=-7.890617582181D+03 EE= 1.595628760429D+03
 Leave Link  502 at Mon May 27 10:32:42 2024, MaxMem=   536870912 cpu:              99.7 elap:               9.2
 (Enter /home/ely/Documents/g16/g16rheticus/g16_a03/cpu/g16/l801.exe)
 DoSCS=F DFT=T ScalE2(SS,OS)=  1.000000  1.000000
 Range of M.O.s used for correlation:     1   135
 NBasis=   135 NAE=    40 NBE=    40 NFC=     0 NFV=     0
 NROrb=    135 NOA=    40 NOB=    40 NVA=    95 NVB=    95
 Leave Link  801 at Mon May 27 10:32:43 2024, MaxMem=   536870912 cpu:               0.7 elap:               0.0
 (Enter /home/ely/Documents/g16/g16rheticus/g16_a03/cpu/g16/l1101.exe)
 Using compressed storage, NAtomX=    10.
 Will process     11 centers per pass.
 R6Disp: Adding Grimme-D2 dispersion energy 1st derivatives to the gradient.
 Leave Link 1101 at Mon May 27 10:32:43 2024, MaxMem=   536870912 cpu:               3.9 elap:               0.3
 (Enter /home/ely/Documents/g16/g16rheticus/g16_a03/cpu/g16/l1102.exe)
 Symmetrizing basis deriv contribution to polar:
 IMax=3 JMax=2 DiffMx= 0.00D+00
 Leave Link 1102 at Mon May 27 10:32:43 2024, MaxMem=   536870912 cpu:               1.0 elap:               0.1
 (Enter /home/ely/Documents/g16/g16rheticus/g16_a03/cpu/g16/l1110.exe)
 Forming Gx(P) for the SCF density, NAtomX=    10.
 Integral derivatives from FoFJK, PRISM(SPDF).
 Do as many integral derivatives as possible in FoFJK.
 G2DrvN: MDV=     536870056.
 G2DrvN: will do    11 centers at a time, making    1 passes.
 Calling FoFCou, ICntrl=  3107 FMM=F I1Cent=   0 AccDes= 0.00D+00.
 FoFJK:  IHMeth= 1 ICntrl=    3107 DoSepK=T KAlg= 0 I1Cent=           0 FoldK=F
 IRaf=         1 NMat=       1 IRICut=       1 DoRegI=T DoRafI=F ISym2E= 1 IDoP0=0 IntGTp=1.
 FoFCou: FMM=F IPFlag=           0 FMFlag=      100000 FMFlg1=           0
         NFxFlg=           0 DoJE=F BraDBF=F KetDBF=F FulRan=T
         wScrn=  0.000000 ICntrl=      3507 IOpCl=  0 I1Cent=           0 NGrid=           0
         NMat0=    1 NMatS0=      1 NMatT0=    0 NMatD0=    1 NMtDS0=    0 NMtDT0=    0
 Petite list used in FoFCou.
 End of G2Drv F.D. properties file   721 does not exist.
 End of G2Drv F.D. properties file   722 does not exist.
 End of G2Drv F.D. properties file   788 does not exist.
 Leave Link 1110 at Mon May 27 10:32:51 2024, MaxMem=   536870912 cpu:             122.3 elap:               7.7
 (Enter /home/ely/Documents/g16/g16rheticus/g16_a03/cpu/g16/l1002.exe)
 Minotr:  Closed shell wavefunction.
          IDoAtm=1111111111
          Direct CPHF calculation.
          Differentiating once with respect to electric field.
                with respect to dipole field.
          Differentiating once with respect to nuclear coordinates.
          Using symmetry in CPHF.
          Requested convergence is 1.0D-08 RMS, and 1.0D-07 maximum.
          Secondary convergence is 1.0D-12 RMS, and 1.0D-12 maximum.
          NewPWx=T KeepS1=F KeepF1=F KeepIn=T MapXYZ=F SortEE=F KeepMc=T.
         3044 words used for storage of precomputed grid.
 Keep R1 ints in memory in symmetry-blocked form, NReq=127536174.
 FoFCou: FMM=F IPFlag=           0 FMFlag=           0 FMFlg1=           0
         NFxFlg=           0 DoJE=F BraDBF=F KetDBF=F FulRan=T
         wScrn=  0.000000 ICntrl=       600 IOpCl=  0 I1Cent=           0 NGrid=           0
         NMat0=    1 NMatS0=   9180 NMatT0=    0 NMatD0=    1 NMtDS0=    0 NMtDT0=    0
 Petite list used in FoFCou.
          MDV=     536870912 using IRadAn=       1.
          Solving linear equations simultaneously, MaxMat=       0.
          There are    30 degrees of freedom in the 1st order CPHF.  IDoFFX=4 NUNeed=    30.
     30 vectors produced by pass  0 Test12= 1.27D-14 3.33D-09 XBig12= 2.99D+01 2.85D+00.
 AX will form    30 AO Fock derivatives at one time.
     30 vectors produced by pass  1 Test12= 1.27D-14 3.33D-09 XBig12= 5.09D+00 5.32D-01.
     30 vectors produced by pass  2 Test12= 1.27D-14 3.33D-09 XBig12= 1.58D-01 7.53D-02.
     30 vectors produced by pass  3 Test12= 1.27D-14 3.33D-09 XBig12= 3.06D-03 1.00D-02.
     30 vectors produced by pass  4 Test12= 1.27D-14 3.33D-09 XBig12= 3.70D-05 1.14D-03.
     30 vectors produced by pass  5 Test12= 1.27D-14 3.33D-09 XBig12= 3.86D-07 1.03D-04.
     27 vectors produced by pass  6 Test12= 1.27D-14 3.33D-09 XBig12= 2.10D-09 7.05D-06.
     11 vectors produced by pass  7 Test12= 1.27D-14 3.33D-09 XBig12= 9.28D-12 4.41D-07.
      3 vectors produced by pass  8 Test12= 1.27D-14 3.33D-09 XBig12= 4.11D-14 2.84D-08.
 InvSVY:  IOpt=1 It=  1 EMax= 4.44D-15
 Solved reduced A of dimension   221 with    30 vectors.
 FullF1:  Do perturbations      1 to      30.
 Isotropic polarizability for W=    0.000000       57.88 Bohr**3.
 End of Minotr F.D. properties file   721 does not exist.
 End of Minotr F.D. properties file   722 does not exist.
 End of Minotr F.D. properties file   788 does not exist.
 Leave Link 1002 at Mon May 27 10:33:05 2024, MaxMem=   536870912 cpu:             224.1 elap:              14.0
 (Enter /home/ely/Documents/g16/g16rheticus/g16_a03/cpu/g16/l601.exe)
 Copying SCF densities to generalized density rwf, IOpCl= 0 IROHF=0.

 **********************************************************************

            Population analysis using the SCF density.

 **********************************************************************

 Orbital symmetries:
       Occupied  (A') (A') (A') (A") (A') (A') (A') (A') (A') (A')
                 (A') (A') (A') (A") (A') (A') (A") (A') (A") (A')
                 (A') (A') (A') (A') (A') (A') (A') (A') (A") (A')
                 (A') (A") (A') (A") (A') (A') (A") (A') (A") (A')
       Virtual   (A") (A') (A') (A") (A") (A') (A') (A') (A") (A')
                 (A') (A') (A') (A") (A") (A') (A') (A') (A') (A')
                 (A") (A') (A') (A') (A") (A") (A') (A') (A') (A")
                 (A') (A') (A') (A") (A') (A') (A') (A") (A') (A')
                 (A") (A") (A') (A') (A") (A') (A') (A") (A") (A')
                 (A") (A') (A') (A") (A') (A") (A') (A') (A") (A')
                 (A") (A') (A') (A") (A') (A') (A") (A') (A') (A')
                 (A') (A') (A") (A') (A') (A') (A') (A') (A") (A')
                 (A") (A") (A') (A') (A") (A") (A") (A') (A") (A')
                 (A') (A') (A') (A') (A')
 The electronic state is 1-A'.
 Alpha  occ. eigenvalues -- -483.17068 -62.72258 -56.51487 -56.51117 -56.51114
 Alpha  occ. eigenvalues --  -19.33928 -19.32601 -19.28679 -10.46107 -10.44548
 Alpha  occ. eigenvalues --  -10.38869  -8.84967  -6.67243  -6.65843  -6.65831
 Alpha  occ. eigenvalues --   -2.77197  -2.76795  -2.76787  -2.75658  -2.75657
 Alpha  occ. eigenvalues --   -1.25014  -1.20712  -1.16009  -0.94852  -0.85116
 Alpha  occ. eigenvalues --   -0.76333  -0.71740  -0.64665  -0.60539  -0.59081
 Alpha  occ. eigenvalues --   -0.55851  -0.55634  -0.52721  -0.50075  -0.48305
 Alpha  occ. eigenvalues --   -0.44652  -0.43241  -0.38550  -0.38105  -0.36713
 Alpha virt. eigenvalues --   -0.02911   0.04515   0.09893   0.10878   0.12383
 Alpha virt. eigenvalues --    0.12474   0.13141   0.15795   0.20507   0.20607
 Alpha virt. eigenvalues --    0.25036   0.31311   0.31652   0.32871   0.33368
 Alpha virt. eigenvalues --    0.35909   0.38108   0.39745   0.47282   0.50033
 Alpha virt. eigenvalues --    0.52801   0.54592   0.57241   0.60227   0.62374
 Alpha virt. eigenvalues --    0.65985   0.66525   0.68059   0.69780   0.71294
 Alpha virt. eigenvalues --    0.73305   0.74795   0.75166   0.78754   0.82155
 Alpha virt. eigenvalues --    0.86808   0.90197   0.98330   0.99795   1.01078
 Alpha virt. eigenvalues --    1.02023   1.05142   1.05710   1.05863   1.06879
 Alpha virt. eigenvalues --    1.07572   1.09064   1.09363   1.10344   1.14164
 Alpha virt. eigenvalues --    1.17088   1.20297   1.22625   1.26062   1.29078
 Alpha virt. eigenvalues --    1.40127   1.42281   1.45714   1.46091   1.57869
 Alpha virt. eigenvalues --    1.58757   1.66765   1.69827   1.70140   1.70966
 Alpha virt. eigenvalues --    1.73837   1.83316   1.83710   1.92917   1.96297
 Alpha virt. eigenvalues --    2.02077   2.02969   2.04089   2.15406   2.17488
 Alpha virt. eigenvalues --    2.24303   2.27721   2.46230   2.49586   2.54436
 Alpha virt. eigenvalues --    2.66930   2.73157   2.75247   2.77720   2.86846
 Alpha virt. eigenvalues --    2.97968   3.10654   3.14788   3.23802   3.28557
 Alpha virt. eigenvalues --    3.43120   3.44318   3.54557   3.59551   3.78182
          Condensed to atoms (all electrons):
               1          2          3          4          5          6
     1  C    5.078189  -0.069660  -0.083620   0.227768   0.026464   0.005204
     2  C   -0.069660   4.501482  -0.056512   0.219695   0.762694   0.462222
     3  O   -0.083620  -0.056512   7.572424   0.683709   0.001336  -0.005537
     4  C    0.227768   0.219695   0.683709   5.075408  -0.098546  -0.088260
     5  O    0.026464   0.762694   0.001336  -0.098546   7.557028  -0.048308
     6  O    0.005204   0.462222  -0.005537  -0.088260  -0.048308   7.458855
     7  H    0.384255  -0.001487   0.000310  -0.015383   0.003946   0.000131
     8  Br   0.203856   0.009522   0.030876  -0.056880  -0.001992  -0.000928
     9  H    0.384255  -0.001487   0.000310  -0.015383   0.003946   0.000131
    10  H    0.003476  -0.039134   0.037319  -0.014123   0.003240   0.349651
               7          8          9         10
     1  C    0.384255   0.203856   0.384255   0.003476
     2  C   -0.001487   0.009522  -0.001487  -0.039134
     3  O    0.000310   0.030876   0.000310   0.037319
     4  C   -0.015383  -0.056880  -0.015383  -0.014123
     5  O    0.003946  -0.001992   0.003946   0.003240
     6  O    0.000131  -0.000928   0.000131   0.349651
     7  H    0.544759  -0.027694  -0.019562  -0.000103
     8  Br  -0.027694  34.920357  -0.027694  -0.000688
     9  H   -0.019562  -0.027694   0.544759  -0.000103
    10  H   -0.000103  -0.000688  -0.000103   0.484267
 Mulliken charges:
               1
     1  C   -0.160189
     2  C    0.212664
     3  O   -0.180616
     4  C    0.081994
     5  O   -0.209808
     6  O   -0.133160
     7  H    0.130827
     8  Br  -0.048736
     9  H    0.130827
    10  H    0.176198
 Sum of Mulliken charges =  -0.00000
 Mulliken charges with hydrogens summed into heavy atoms:
               1
     1  C    0.101464
     2  C    0.212664
     3  O   -0.180616
     4  C    0.081994
     5  O   -0.209808
     6  O    0.043038
     8  Br  -0.048736
 APT charges:
               1
     1  C    0.075530
     2  C    0.993850
     3  O   -0.595935
     4  C    0.616977
     5  O   -0.671442
     6  O   -0.726661
     7  H    0.044036
     8  Br  -0.163693
     9  H    0.044036
    10  H    0.383303
 Sum of APT charges =  -0.00000
 APT charges with hydrogens summed into heavy atoms:
               1
     1  C    0.163601
     2  C    0.993850
     3  O   -0.595935
     4  C    0.616977
     5  O   -0.671442
     6  O   -0.343358
     8  Br  -0.163693
 Electronic spatial extent (au):  <R**2>=           1451.6849
 Charge=             -0.0000 electrons
 Dipole moment (field-independent basis, Debye):
    X=              0.3823    Y=             -0.2729    Z=              0.0000  Tot=              0.4697
 Quadrupole moment (field-independent basis, Debye-Ang):
   XX=            -63.1661   YY=            -50.3611   ZZ=            -49.7677
   XY=              3.2622   XZ=             -0.0000   YZ=              0.0000
 Traceless Quadrupole moment (field-independent basis, Debye-Ang):
   XX=             -8.7345   YY=              4.0706   ZZ=              4.6639
   XY=              3.2622   XZ=             -0.0000   YZ=              0.0000
 Octapole moment (field-independent basis, Debye-Ang**2):
  XXX=             85.7497  YYY=              0.9364  ZZZ=              0.0000  XYY=              5.3262
  XXY=             -4.1897  XXZ=              0.0000  XZZ=              8.1555  YZZ=              3.3567
  YYZ=              0.0000  XYZ=             -0.0000
 Hexadecapole moment (field-independent basis, Debye-Ang**3):
 XXXX=          -1263.5495 YYYY=           -313.3018 ZZZZ=            -54.9752 XXXY=           -146.7213
 XXXZ=              0.0000 YYYX=           -128.0539 YYYZ=              0.0000 ZZZX=             -0.0000
 ZZZY=             -0.0000 XXYY=           -257.5619 XXZZ=           -200.2529 YYZZ=            -63.5803
 XXYZ=             -0.0000 YYXZ=             -0.0000 ZZXY=            -50.4459
 N-N= 4.686832767196D+02 E-N=-7.890617583026D+03  KE= 2.910402216906D+03
 Symmetry A'   KE= 2.520941296701D+03
 Symmetry A"   KE= 3.894609202052D+02
  Exact polarizability:  72.711   2.408  61.499   0.000  -0.000  39.430
 Approx polarizability:  74.992  -6.771  78.209   0.000   0.000  47.307
 No NMR shielding tensors so no spin-rotation constants.
 Leave Link  601 at Mon May 27 10:33:05 2024, MaxMem=   536870912 cpu:               4.2 elap:               0.4
 (Enter /home/ely/Documents/g16/g16rheticus/g16_a03/cpu/g16/l701.exe)
 ... and contract with generalized density number  0.
 Compute integral second derivatives.
 R6Disp: Adding Grimme-D2 dispersion energy 2nd derivatives to the Hessian.
 Leave Link  701 at Mon May 27 10:33:06 2024, MaxMem=   536870912 cpu:               4.0 elap:               0.3
 (Enter /home/ely/Documents/g16/g16rheticus/g16_a03/cpu/g16/l702.exe)
 L702 exits ... SP integral derivatives will be done elsewhere.
 Leave Link  702 at Mon May 27 10:33:06 2024, MaxMem=   536870912 cpu:               0.8 elap:               0.1
 (Enter /home/ely/Documents/g16/g16rheticus/g16_a03/cpu/g16/l703.exe)
 Integral derivatives from FoFJK, PRISM(SPDF).
 Compute integral second derivatives, UseDBF=F ICtDFT=           0.
 Calling FoFJK, ICntrl=    100127 FMM=F ISym2X=1 I1Cent= 0 IOpClX= 0 NMat=1 NMatS=1 NMatT=0.
 FoFJK:  IHMeth= 1 ICntrl=  100127 DoSepK=T KAlg= 0 I1Cent=           0 FoldK=F
 IRaf=         1 NMat=       1 IRICut=       1 DoRegI=T DoRafI=F ISym2E= 1 IDoP0=0 IntGTp=1.
 FoFCou: FMM=F IPFlag=           0 FMFlag=      100000 FMFlg1=         800
         NFxFlg=           0 DoJE=F BraDBF=F KetDBF=F FulRan=T
         wScrn=  0.000000 ICntrl=    100527 IOpCl=  0 I1Cent=           0 NGrid=           0
         NMat0=    1 NMatS0=      1 NMatT0=    0 NMatD0=    1 NMtDS0=    0 NMtDT0=    0
 Petite list used in FoFCou.
 Leave Link  703 at Mon May 27 10:33:23 2024, MaxMem=   536870912 cpu:             274.1 elap:              17.3
 (Enter /home/ely/Documents/g16/g16rheticus/g16_a03/cpu/g16/l716.exe)
 Dipole        = 1.50419340D-01-1.07369839D-01 4.54010613D-16
 Polarizability= 7.27111232D+01 2.40822199D+00 6.14991514D+01
                 2.26721522D-09-1.17977562D-08 3.94302389D+01
 Full mass-weighted force constant matrix:
 Low frequencies ---   -1.9860    0.0123    0.0123    0.0141    4.7521    9.8382
 Low frequencies ---   57.7823  101.9232  144.6023
 Diagonal vibrational polarizability:
       19.9362920      15.8939730      67.4340718
 Harmonic frequencies (cm**-1), IR intensities (KM/Mole), Raman scattering
 activities (A**4/AMU), depolarization ratios for plane and unpolarized
 incident light, reduced masses (AMU), force constants (mDyne/A),
 and normal coordinates:
                      1                      2                      3
                     A"                     A"                     A'
 Frequencies --     57.7659               101.9143               144.5985
 Red. masses --      4.1943                 5.3707                 9.4302
 Frc consts  --      0.0082                 0.0329                 0.1162
 IR Inten    --      4.4503                 9.1594                 5.6195
  Atom  AN      X      Y      Z        X      Y      Z        X      Y      Z
     1   6    -0.00   0.00   0.33     0.00  -0.00   0.24     0.00   0.29  -0.00
     2   6     0.00  -0.00  -0.04    -0.00   0.00  -0.02    -0.03   0.03  -0.00
     3   8     0.00   0.00   0.20    -0.00   0.00  -0.26     0.10   0.36  -0.00
     4   6     0.00   0.00   0.17    -0.00   0.00  -0.05    -0.02   0.31  -0.00
     5   8    -0.00  -0.00  -0.07    -0.00  -0.00  -0.28    -0.28  -0.11   0.00
     6   8    -0.00  -0.00  -0.19     0.00  -0.00   0.31     0.29  -0.12   0.00
     7   1     0.18  -0.22   0.55     0.11  -0.27   0.46     0.09   0.32   0.01
     8  35    -0.00  -0.00  -0.07     0.00   0.00   0.00    -0.02  -0.13   0.00
     9   1    -0.18   0.22   0.55    -0.11   0.27   0.46     0.09   0.32  -0.01
    10   1    -0.00  -0.00  -0.12     0.00   0.00   0.30     0.49   0.10  -0.00
                      4                      5                      6
                     A'                     A'                     A"
 Frequencies --    213.5883               349.9826               383.5303
 Red. masses --     20.0854                 6.4230                 3.7376
 Frc consts  --      0.5399                 0.4635                 0.3239
 IR Inten    --      9.8275                34.6848                 9.8477
  Atom  AN      X      Y      Z        X      Y      Z        X      Y      Z
     1   6     0.12  -0.10   0.00     0.04  -0.11   0.00    -0.00   0.00   0.02
     2   6    -0.34  -0.01   0.00     0.09   0.13   0.00    -0.00  -0.00   0.23
     3   8    -0.45  -0.08   0.00    -0.32  -0.17  -0.00     0.00   0.00  -0.17
     4   6    -0.22   0.03   0.00    -0.00  -0.01   0.00     0.00   0.00   0.36
     5   8    -0.61  -0.17   0.00     0.03   0.10  -0.00    -0.00  -0.00  -0.12
     6   8    -0.10  -0.14  -0.00     0.42   0.01  -0.00    -0.00  -0.00  -0.09
     7   1     0.19  -0.05  -0.00    -0.03  -0.12  -0.01    -0.04   0.52  -0.34
     8  35     0.30   0.09  -0.00    -0.05   0.01  -0.00     0.00  -0.00  -0.01
     9   1     0.19  -0.05   0.00    -0.03  -0.12   0.01     0.04  -0.52  -0.34
    10   1     0.06   0.03   0.00     0.72   0.31   0.00    -0.00  -0.00  -0.02
                      7                      8                      9
                     A'                     A'                     A"
 Frequencies --    519.7885               669.4662               671.4694
 Red. masses --     10.9780                 6.6109                 2.0839
 Frc consts  --      1.7475                 1.7457                 0.5536
 IR Inten    --      4.8965                39.7193                58.0993
  Atom  AN      X      Y      Z        X      Y      Z        X      Y      Z
     1   6    -0.14   0.29  -0.00    -0.31  -0.21   0.00    -0.00  -0.00  -0.13
     2   6     0.03  -0.26  -0.00    -0.27   0.04  -0.00    -0.00   0.00   0.25
     3   8    -0.38   0.13  -0.00     0.19   0.11  -0.00     0.00   0.00   0.01
     4   6    -0.24   0.18   0.00    -0.23  -0.09   0.00    -0.00  -0.00  -0.06
     5   8     0.47  -0.04  -0.00     0.06   0.27   0.00     0.00   0.00  -0.05
     6   8    -0.07  -0.27  -0.00     0.10  -0.16   0.00     0.00  -0.00  -0.10
     7   1     0.02   0.33   0.02    -0.28  -0.20   0.00     0.14  -0.43   0.21
     8  35     0.05  -0.00  -0.00     0.05  -0.00  -0.00     0.00  -0.00   0.01
     9   1     0.02   0.33  -0.02    -0.28  -0.20  -0.00    -0.14   0.43   0.21
    10   1    -0.02  -0.23   0.00     0.51   0.25  -0.00     0.00   0.00   0.64
                     10                     11                     12
                     A"                     A'                     A'
 Frequencies --    725.1754               745.0344               827.3010
 Red. masses --      1.2207                 5.5637                 7.5601
 Frc consts  --      0.3782                 1.8195                 3.0486
 IR Inten    --     47.2017                 8.8257                 8.1366
  Atom  AN      X      Y      Z        X      Y      Z        X      Y      Z
     1   6     0.00  -0.00   0.06     0.46  -0.25  -0.00     0.12   0.42  -0.00
     2   6    -0.00  -0.00  -0.10    -0.13  -0.03   0.00    -0.26   0.04  -0.00
     3   8     0.00   0.00  -0.02     0.00   0.15   0.00     0.06  -0.28  -0.00
     4   6    -0.00   0.00   0.00    -0.05   0.09  -0.00     0.22  -0.13   0.00
     5   8     0.00   0.00   0.05     0.07   0.09  -0.00    -0.03   0.23   0.00
     6   8     0.00  -0.00  -0.03    -0.06  -0.17   0.00    -0.05  -0.23  -0.00
     7   1    -0.08   0.18  -0.09     0.54  -0.13  -0.05     0.15   0.38   0.04
     8  35    -0.00   0.00  -0.00    -0.06   0.02  -0.00    -0.01  -0.01   0.00
     9   1     0.08  -0.18  -0.09     0.54  -0.13   0.05     0.15   0.38  -0.04
    10   1     0.00   0.00   0.94     0.11  -0.00  -0.00     0.33   0.16   0.00
                     13                     14                     15
                     A"                     A'                     A"
 Frequencies --    896.8771              1078.0840              1148.1533
 Red. masses --      2.5505                 2.4636                 1.1500
 Frc consts  --      1.2088                 1.6870                 0.8932
 IR Inten    --      2.9401                88.8783                 0.7229
  Atom  AN      X      Y      Z        X      Y      Z        X      Y      Z
     1   6     0.00  -0.00  -0.19    -0.02  -0.06  -0.00    -0.00   0.00   0.03
     2   6    -0.00   0.00  -0.19     0.03   0.04   0.00     0.00   0.00   0.04
     3   8     0.00   0.00  -0.05    -0.07   0.04   0.00     0.00  -0.00   0.02
     4   6    -0.00  -0.00   0.24     0.26   0.15   0.00    -0.00  -0.00  -0.10
     5   8    -0.00   0.00   0.05    -0.01   0.05   0.00    -0.00   0.00  -0.01
     6   8     0.00  -0.00   0.03    -0.07  -0.12  -0.00     0.00  -0.00  -0.01
     7   1     0.56  -0.28   0.19    -0.58  -0.32  -0.02     0.60   0.36  -0.01
     8  35    -0.00   0.00   0.01     0.01  -0.00   0.00     0.00  -0.00   0.00
     9   1    -0.56   0.28   0.19    -0.58  -0.32   0.02    -0.60  -0.36  -0.01
    10   1    -0.00  -0.00   0.09    -0.04  -0.09  -0.00    -0.00  -0.00  -0.00
                     16                     17                     18
                     A'                     A'                     A'
 Frequencies --   1228.3827              1305.1405              1404.7200
 Red. masses --      1.8031                 1.7564                 1.1365
 Frc consts  --      1.6030                 1.7627                 1.3213
 IR Inten    --     17.5776                71.5564               115.6635
  Atom  AN      X      Y      Z        X      Y      Z        X      Y      Z
     1   6     0.07   0.03  -0.00    -0.17  -0.08  -0.00    -0.00  -0.08  -0.00
     2   6    -0.14  -0.11  -0.00    -0.01  -0.00  -0.00     0.04   0.03  -0.00
     3   8     0.01   0.00   0.00    -0.02  -0.00   0.00     0.00  -0.01   0.00
     4   6     0.02   0.02   0.00     0.15   0.07   0.00     0.01   0.01   0.00
     5   8     0.06  -0.09   0.00     0.01  -0.03   0.00    -0.01  -0.00   0.00
     6   8    -0.03   0.11   0.00    -0.05  -0.01  -0.00    -0.03  -0.02  -0.00
     7   1    -0.29  -0.10  -0.04     0.58   0.06   0.14    -0.13   0.53  -0.43
     8  35     0.00  -0.00   0.00    -0.00   0.00   0.00     0.00  -0.00  -0.00
     9   1    -0.29  -0.10   0.04     0.58   0.06  -0.14    -0.13   0.53   0.43
    10   1     0.54   0.67   0.00     0.31   0.35   0.00     0.12   0.13  -0.00
                     19                     20                     21
                     A'                     A'                     A'
 Frequencies --   1436.1266              1860.0056              1910.1362
 Red. masses --      2.8733                12.4659                10.9561
 Frc consts  --      3.4916                25.4098                23.5524
 IR Inten    --    287.9672               103.8670               221.9625
  Atom  AN      X      Y      Z        X      Y      Z        X      Y      Z
     1   6     0.04   0.06  -0.00    -0.01  -0.05  -0.00    -0.01   0.00  -0.00
     2   6     0.26   0.17   0.00     0.02  -0.02   0.00    -0.35   0.69  -0.00
     3   8     0.02   0.00  -0.00     0.23  -0.48  -0.00     0.01  -0.02  -0.00
     4   6    -0.14  -0.07   0.00    -0.31   0.74   0.00     0.01  -0.01  -0.00
     5   8    -0.03  -0.02  -0.00     0.01  -0.00  -0.00     0.24  -0.40   0.00
     6   8    -0.14  -0.12  -0.00    -0.01  -0.01  -0.00     0.03  -0.07   0.00
     7   1    -0.05  -0.22   0.15    -0.02  -0.13   0.06    -0.02   0.01   0.00
     8  35     0.00   0.00   0.00     0.00   0.00   0.00    -0.00  -0.00   0.00
     9   1    -0.05  -0.22  -0.15    -0.02  -0.13  -0.06    -0.02   0.01  -0.00
    10   1     0.57   0.61   0.00    -0.07  -0.11   0.00    -0.30  -0.30   0.00
                     22                     23                     24
                     A'                     A"                     A'
 Frequencies --   3108.5344              3167.2206              3682.6333
 Red. masses --      1.0607                 1.1042                 1.0647
 Frc consts  --      6.0387                 6.5261                 8.5070
 IR Inten    --     12.5566                 5.0918               122.2806
  Atom  AN      X      Y      Z        X      Y      Z        X      Y      Z
     1   6     0.03  -0.06  -0.00    -0.00   0.00  -0.09     0.00  -0.00   0.00
     2   6     0.00  -0.00   0.00     0.00   0.00  -0.00     0.00  -0.01  -0.00
     3   8    -0.00   0.00  -0.00     0.00  -0.00  -0.00     0.00  -0.00   0.00
     4   6     0.00  -0.00  -0.00    -0.00   0.00  -0.00    -0.00   0.00   0.00
     5   8     0.00   0.00   0.00     0.00  -0.00   0.00    -0.00   0.00   0.00
     6   8    -0.00   0.00  -0.00     0.00  -0.00   0.00     0.04  -0.04   0.00
     7   1    -0.18   0.36   0.58    -0.19   0.38   0.56    -0.00  -0.00  -0.00
     8  35    -0.00   0.00   0.00    -0.00   0.00   0.00     0.00   0.00  -0.00
     9   1    -0.18   0.36  -0.58     0.19  -0.38   0.56    -0.00  -0.00   0.00
    10   1    -0.00   0.00   0.00    -0.00   0.00  -0.00    -0.70   0.71  -0.00

 -------------------
 - Thermochemistry -
 -------------------
 Temperature   298.150 Kelvin.  Pressure   1.00000 Atm.
 Atom     1 has atomic number  6 and mass  12.00000
 Atom     2 has atomic number  6 and mass  12.00000
 Atom     3 has atomic number  8 and mass  15.99491
 Atom     4 has atomic number  6 and mass  12.00000
 Atom     5 has atomic number  8 and mass  15.99491
 Atom     6 has atomic number  8 and mass  15.99491
 Atom     7 has atomic number  1 and mass   1.00783
 Atom     8 has atomic number 35 and mass  78.91834
 Atom     9 has atomic number  1 and mass   1.00783
 Atom    10 has atomic number  1 and mass   1.00783
 Molecular mass:   165.92656 amu.
 Principal axes and moments of inertia in atomic units:
                           1         2         3
     Eigenvalues --   332.584572400.733542722.10513
           X            0.95133  -0.30818   0.00000
           Y            0.30818   0.95133   0.00000
           Z            0.00000  -0.00000   1.00000
 This molecule is an asymmetric top.
 Rotational symmetry number  1.
 Rotational temperatures (Kelvin)      0.26043     0.03608     0.03182
 Rotational constants (GHZ):           5.42641     0.75175     0.66299
 Zero-point vibrational energy     165297.8 (Joules/Mol)
                                   39.50712 (Kcal/Mol)
 Warning -- explicit consideration of   7 degrees of freedom as
           vibrations may cause significant error
 Vibrational temperatures:     83.11   146.63   208.04   307.31   503.55
          (Kelvin)            551.81   747.86   963.21   966.09  1043.37
                             1071.94  1190.30  1290.41  1551.12  1651.94
                             1767.37  1877.81  2021.08  2066.27  2676.13
                             2748.26  4472.49  4556.92  5298.49
 
 Zero-point correction=                           0.062959 (Hartree/Particle)
 Thermal correction to Energy=                    0.070094
 Thermal correction to Enthalpy=                  0.071038
 Thermal correction to Gibbs Free Energy=         0.029385
 Sum of electronic and zero-point Energies=          -2915.840370
 Sum of electronic and thermal Energies=             -2915.833234
 Sum of electronic and thermal Enthalpies=           -2915.832290
 Sum of electronic and thermal Free Energies=        -2915.873943
 
                     E (Thermal)             CV                S
                      KCal/Mol        Cal/Mol-Kelvin    Cal/Mol-Kelvin
 Total                   43.985             23.419             87.667
 Electronic               0.000              0.000              0.000
 Translational            0.889              2.981             41.227
 Rotational               0.889              2.981             29.165
 Vibrational             42.207             17.458             17.275
 Vibration     1          0.596              1.974              4.532
 Vibration     2          0.604              1.948              3.417
 Vibration     3          0.616              1.908              2.742
 Vibration     4          0.644              1.820              2.013
 Vibration     5          0.727              1.575              1.166
 Vibration     6          0.753              1.505              1.025
 Vibration     7          0.875              1.206              0.610
                       Q            Log10(Q)             Ln(Q)
 Total Bot       0.304804D-13        -13.515979        -31.121693
 Total V=0       0.277293D+16         15.442939         35.558681
 Vib (Bot)       0.687499D-27        -27.162728        -62.544493
 Vib (Bot)    1  0.357573D+01          0.553364          1.274168
 Vib (Bot)    2  0.201297D+01          0.303838          0.699613
 Vib (Bot)    3  0.140444D+01          0.147502          0.339636
 Vib (Bot)    4  0.928554D+00         -0.032193         -0.074127
 Vib (Bot)    5  0.527173D+00         -0.278047         -0.640227
 Vib (Bot)    6  0.470257D+00         -0.327665         -0.754476
 Vib (Bot)    7  0.310597D+00         -0.507802         -1.169258
 Vib (V=0)       0.625446D+02          1.796190          4.135881
 Vib (V=0)    1  0.411051D+01          0.613896          1.413548
 Vib (V=0)    2  0.257414D+01          0.410632          0.945516
 Vib (V=0)    3  0.199079D+01          0.299025          0.688530
 Vib (V=0)    4  0.155461D+01          0.191623          0.441228
 Vib (V=0)    5  0.122658D+01          0.088694          0.204226
 Vib (V=0)    6  0.118640D+01          0.074230          0.170921
 Vib (V=0)    7  0.108862D+01          0.036875          0.084909
 Electronic      0.100000D+01          0.000000          0.000000
 Translational   0.840094D+08          7.924328         18.246439
 Rotational      0.527741D+06          5.722421         13.176361
 
                                                               3bp PES
                                                             IR Spectrum
 
     3                 3 3                                         11              11  1  1  1 1                                     
     6                 1 1                                         98              44  3  2  1 0      8 8 7766     5   33    2  11   
     8                 6 0                                         16              30  0  2  4 7      9 2 4276     2   85    1  40 5 
     3                 7 9                                         00              65  5  8  8 8      7 7 5519     0   40    4  52 8 
 
     X                 X X                                         XX              XX  X  X  X X      X X XXXX     X   XX    X  XX X 
     X                                                             XX              XX  X       X           XXX          X            
     X                                                             XX              XX  X       X           XXX                       
     X                                                             XX              XX  X       X            X                        
     X                                                             XX              XX  X       X                                     
     X                                                             XX              XX          X                                     
     X                                                             XX              XX                                                
     X                                                             X               XX                                                
                                                                   X               X                                                 
                                                                   X               X                                                 
                                                                   X               X                                                 
                                                                   X               X                                                 
                                                                   X               X                                                 
                                                                   X               X                                                 
                                                                   X               X                                                 
                                                                                   X                                                 
                                                                                   X                                                 
                                                                                   X                                                 
                                                                                   X                                                 
                                                                                   X                                                 
 
 ***** Axes restored to original set *****
 -------------------------------------------------------------------
 Center     Atomic                   Forces (Hartrees/Bohr)
 Number     Number              X              Y              Z
 -------------------------------------------------------------------
      1        6           0.000010151    0.000014257    0.000000000
      2        6          -0.000012149   -0.000008920   -0.000000000
      3        8           0.000047003    0.000001126   -0.000000000
      4        6           0.000014365   -0.000019666   -0.000000000
      5        8           0.000014705    0.000021749    0.000000000
      6        8           0.000032494   -0.000001042   -0.000000000
      7        1          -0.000010162   -0.000005381   -0.000005281
      8       35          -0.000007693    0.000000610   -0.000000000
      9        1          -0.000010162   -0.000005381    0.000005281
     10        1          -0.000078552    0.000002647    0.000000000
 -------------------------------------------------------------------
 Cartesian Forces:  Max     0.000078552 RMS     0.000019698
 Z-matrix is all fixed cartesians, so copy forces.
 Force constants in Cartesian coordinates: 
                1             2             3             4             5 
      1  0.379204D+00
      2  0.276238D-02  0.480431D+00
      3  0.000000D+00  0.000000D+00  0.530437D+00
      4 -0.178198D-01  0.741744D-03  0.000000D+00  0.605408D+00
      5  0.254185D-01  0.991021D-02  0.000000D+00  0.123795D+00  0.109449D+01
      6  0.000000D+00  0.000000D+00  0.193103D-01  0.000000D+00  0.000000D+00
      7  0.169047D-01  0.167450D-01  0.000000D+00 -0.949013D-02 -0.363711D-01
      8 -0.648541D-02 -0.585687D-01  0.000000D+00 -0.127266D-01 -0.379364D-01
      9  0.000000D+00  0.000000D+00  0.220314D-01  0.000000D+00  0.000000D+00
     10 -0.144121D+00  0.658455D-01  0.000000D+00 -0.164490D+00  0.293722D-01
     11  0.665760D-01 -0.133567D+00  0.000000D+00  0.875282D-02 -0.632226D-01
     12  0.000000D+00  0.000000D+00 -0.828680D-01  0.000000D+00  0.000000D+00
     13 -0.148458D-03  0.256552D-02  0.000000D+00 -0.212737D+00 -0.245858D+00
     14 -0.187166D-02 -0.771538D-03  0.000000D+00 -0.248208D+00 -0.701616D+00
     15  0.000000D+00  0.000000D+00 -0.531510D-02  0.000000D+00  0.000000D+00
     16 -0.429072D-02 -0.408118D-02  0.000000D+00 -0.232414D+00  0.898101D-01
     17 -0.378394D-03  0.232281D-02  0.000000D+00  0.149245D+00 -0.245496D+00
     18  0.000000D+00  0.000000D+00 -0.131383D-02  0.000000D+00  0.000000D+00
     19 -0.471265D-01 -0.256931D-01 -0.447096D-01  0.180494D-05  0.111665D-02
     20 -0.261990D-01 -0.131455D+00 -0.135698D+00  0.341573D-03 -0.104794D-02
     21 -0.430809D-01 -0.130561D+00 -0.227629D+00 -0.495769D-04 -0.241960D-02
     22 -0.134658D+00 -0.302460D-01  0.000000D+00  0.296732D-02  0.314739D-02
     23 -0.331180D-01 -0.355448D-01  0.000000D+00  0.232572D-04 -0.380370D-02
     24  0.000000D+00  0.000000D+00 -0.281378D-01  0.000000D+00  0.000000D+00
     25 -0.471265D-01 -0.256931D-01  0.447096D-01  0.180515D-05  0.111665D-02
     26 -0.261990D-01 -0.131455D+00  0.135698D+00  0.341573D-03 -0.104794D-02
     27  0.430809D-01  0.130561D+00 -0.227629D+00  0.495768D-04  0.241960D-02
     28 -0.817072D-03 -0.294667D-02  0.000000D+00  0.285725D-01  0.845256D-02
     29 -0.505406D-03 -0.130210D-02  0.000000D+00 -0.223061D-01 -0.502246D-01
     30  0.000000D+00  0.000000D+00  0.111368D-02  0.000000D+00  0.000000D+00
                6             7             8             9            10 
      6  0.180573D+00
      7  0.000000D+00  0.172504D+00
      8  0.000000D+00  0.221434D+00  0.831020D+00
      9  0.247869D-01  0.000000D+00  0.000000D+00  0.245486D-01
     10  0.000000D+00 -0.164441D+00 -0.190907D+00  0.000000D+00  0.524260D+00
     11  0.000000D+00 -0.187671D+00 -0.741485D+00  0.000000D+00  0.995047D-01
     12 -0.104695D+00  0.000000D+00  0.000000D+00 -0.590164D-01  0.000000D+00
     13  0.000000D+00 -0.133740D-01 -0.102159D-01  0.000000D+00  0.208367D-02
     14  0.000000D+00 -0.126054D-01  0.353205D-04  0.000000D+00 -0.126774D-01
     15 -0.657618D-01  0.000000D+00  0.000000D+00 -0.366736D-02  0.000000D+00
     16  0.000000D+00 -0.685935D-02  0.123551D-02  0.000000D+00 -0.355492D-01
     17  0.000000D+00 -0.930656D-02  0.133079D-01  0.000000D+00  0.300267D-02
     18 -0.486804D-01  0.000000D+00  0.000000D+00 -0.606010D-03  0.000000D+00
     19 -0.195706D-02 -0.221229D-02  0.397255D-02 -0.211502D-02  0.883391D-02
     20  0.249222D-02  0.359786D-02 -0.281473D-02  0.258963D-02 -0.598999D-02
     21 -0.302959D-03  0.324998D-04  0.176730D-02 -0.108833D-02  0.203498D-03
     22  0.000000D+00  0.366528D-02 -0.149667D-02  0.000000D+00 -0.335639D-01
     23  0.000000D+00  0.371405D-02  0.203465D-02  0.000000D+00  0.150116D-01
     24  0.126423D-02  0.000000D+00  0.000000D+00 -0.865279D-03  0.000000D+00
     25  0.195706D-02 -0.221229D-02  0.397255D-02  0.211502D-02  0.883391D-02
     26 -0.249222D-02  0.359786D-02 -0.281473D-02 -0.258963D-02 -0.598999D-02
     27 -0.302959D-03 -0.325000D-04 -0.176730D-02 -0.108833D-02 -0.203498D-03
     28  0.000000D+00  0.551480D-02 -0.878268D-02  0.000000D+00 -0.184574D-02
     29  0.000000D+00 -0.313440D-02 -0.277809D-02  0.000000D+00  0.282810D-02
     30 -0.619170D-02  0.000000D+00  0.000000D+00 -0.503520D-02  0.000000D+00
               11            12            13            14            15 
     11  0.100672D+01
     12  0.000000D+00  0.195430D+00
     13 -0.396614D-01  0.000000D+00  0.195888D+00
     14 -0.246232D-01  0.000000D+00  0.264015D+00  0.824057D+00
     15  0.000000D+00  0.252972D-01  0.000000D+00  0.000000D+00  0.286124D-01
     16  0.356845D-01  0.000000D+00  0.383598D-01 -0.431157D-04  0.000000D+00
     17 -0.168646D-01  0.000000D+00  0.245505D-01 -0.100043D+00  0.000000D+00
     18  0.000000D+00  0.210075D-01  0.000000D+00  0.000000D+00  0.121429D-01
     19  0.531696D-02  0.157884D-01 -0.177365D-02 -0.880428D-03  0.278392D-03
     20 -0.154907D-01 -0.221491D-01 -0.210997D-03  0.624085D-03 -0.211794D-03
     21  0.190438D-02  0.149027D-02 -0.894687D-03  0.126741D-02  0.579404D-03
     22 -0.101100D-01  0.000000D+00 -0.583647D-03  0.409731D-03  0.000000D+00
     23  0.310833D-02  0.000000D+00 -0.641813D-03  0.119558D-02  0.000000D+00
     24  0.000000D+00  0.145086D-02  0.000000D+00  0.000000D+00  0.115139D-03
     25  0.531696D-02 -0.157884D-01 -0.177365D-02 -0.880428D-03 -0.278392D-03
     26 -0.154907D-01  0.221491D-01 -0.210997D-03  0.624085D-03  0.211794D-03
     27 -0.190438D-02  0.149028D-02  0.894687D-03 -0.126741D-02  0.579404D-03
     28  0.162908D-01  0.000000D+00 -0.594054D-02  0.127419D-01  0.000000D+00
     29  0.917768D-03  0.000000D+00  0.566794D-02  0.518127D-03  0.000000D+00
     30  0.000000D+00  0.413378D-03  0.000000D+00  0.000000D+00  0.741777D-02
               16            17            18            19            20 
     16  0.469956D+00
     17  0.606521D-01  0.639254D+00
     18  0.000000D+00  0.000000D+00  0.333929D-01
     19 -0.147707D-03 -0.757651D-03  0.476762D-03  0.567638D-01
     20  0.104329D-03  0.228559D-03 -0.233918D-03  0.280745D-01  0.140282D+00
     21 -0.355109D-04  0.737322D-03  0.313470D-04  0.436523D-01  0.139121D+00
     22 -0.296278D-02  0.163264D-02  0.000000D+00 -0.168404D-01 -0.159013D-02
     23  0.101827D-02  0.317618D-03  0.000000D+00 -0.133699D-01 -0.840228D-03
     24  0.000000D+00  0.000000D+00 -0.979122D-04 -0.147549D-01 -0.145226D-02
     25 -0.147707D-03 -0.757651D-03 -0.476762D-03  0.186174D-02  0.220644D-02
     26  0.104329D-03  0.228558D-03  0.233918D-03  0.220644D-02  0.106096D-01
     27  0.355109D-04 -0.737322D-03  0.313461D-04  0.339533D-02  0.153951D-01
     28 -0.225945D+00 -0.227883D+00  0.000000D+00  0.639320D-03 -0.334578D-03
     29 -0.184485D+00 -0.293256D+00  0.000000D+00  0.139995D-04 -0.963225D-04
     30  0.000000D+00  0.000000D+00 -0.159078D-01 -0.546883D-04  0.146618D-03
               21            22            23            24            25 
     21  0.241405D+00
     22  0.365317D-02  0.199207D+00
     23  0.360009D-02  0.407056D-01  0.341118D-01
     24  0.460569D-02  0.000000D+00  0.000000D+00  0.170760D-01
     25 -0.339533D-02 -0.168404D-01 -0.133699D-01  0.147549D-01  0.567638D-01
     26 -0.153951D-01 -0.159013D-02 -0.840228D-03  0.145226D-02  0.280745D-01
     27 -0.190772D-01 -0.365317D-02 -0.360009D-02  0.460569D-02 -0.436523D-01
     28 -0.854815D-04 -0.389650D-03  0.268253D-04  0.000000D+00  0.639320D-03
     29 -0.218456D-04 -0.862461D-03  0.260915D-03  0.000000D+00  0.139997D-04
     30 -0.141316D-04  0.000000D+00  0.000000D+00 -0.166197D-04  0.546885D-04
               26            27            28            29            30 
     26  0.140282D+00
     27 -0.139121D+00  0.241405D+00
     28 -0.334578D-03  0.854815D-04  0.199572D+00
     29 -0.963224D-04  0.218457D-04  0.202769D+00  0.346057D+00
     30 -0.146618D-03 -0.141325D-04  0.000000D+00  0.000000D+00  0.182348D-01
 Leave Link  716 at Mon May 27 10:33:24 2024, MaxMem=   536870912 cpu:               2.4 elap:               0.2
 (Enter /home/ely/Documents/g16/g16rheticus/g16_a03/cpu/g16/l103.exe)

 GradGradGradGradGradGradGradGradGradGradGradGradGradGradGradGradGradGrad
 Berny optimization.
 Search for a local minimum.
 Step number   1 out of a maximum of    2
 All quantities printed in internal units (Hartrees-Bohrs-Radians)
 Second derivative matrix not updated -- analytic derivatives used.
 ITU=  0
     Eigenvalues ---    0.00076   0.00375   0.00943   0.02484   0.02855
     Eigenvalues ---    0.03420   0.03595   0.05599   0.08407   0.09561
     Eigenvalues ---    0.12614   0.13121   0.18314   0.20896   0.28936
     Eigenvalues ---    0.33395   0.37817   0.64730   0.72897   0.81694
     Eigenvalues ---    0.90489   1.02171   1.76296   1.83342
 Angle between quadratic step and forces=  51.88 degrees.
 ClnCor:  largest displacement from symmetrization is 3.34D-10 for atom     3.
 Linear search not attempted -- first point.
 ClnCor:  largest displacement from symmetrization is 5.69D-15 for atom    10.
 B after Tr=     0.000303   -0.000349   -0.000000
         Rot=    1.000000    0.000000   -0.000000    0.000037 Ang=   0.00 deg.
 Variable       Old X    -DE/DX   Delta X   Delta X   Delta X     New X
                                 (Linear)    (Quad)   (Total)
    X1        0.00732   0.00001   0.00000  -0.00020  -0.00000   0.00732
    Y1       -1.44182   0.00001   0.00000   0.00023  -0.00011  -1.44193
    Z1        0.00000   0.00000   0.00000   0.00000  -0.00000  -0.00000
    X2       -4.56251  -0.00001   0.00000   0.00048   0.00079  -4.56172
    Y2        0.18689  -0.00001   0.00000   0.00035   0.00034   0.18723
    Z2        0.00000  -0.00000   0.00000   0.00000   0.00000   0.00000
    X3       -1.07812   0.00005   0.00000   0.00102   0.00154  -1.07657
    Y3        3.01266   0.00000   0.00000   0.00053   0.00026   3.01292
    Z3        0.00000  -0.00000   0.00000   0.00000  -0.00000  -0.00000
    X4       -1.70997   0.00001   0.00000   0.00039   0.00075  -1.70922
    Y4        0.82187  -0.00002   0.00000   0.00075   0.00053   0.82240
    Z4        0.00000  -0.00000   0.00000   0.00000  -0.00000  -0.00000
    X5       -5.33840   0.00001   0.00000   0.00143   0.00160  -5.33681
    Y5       -1.94483   0.00002   0.00000   0.00001   0.00006  -1.94477
    Z5        0.00000   0.00000   0.00000   0.00000   0.00000   0.00000
    X6       -5.99866   0.00003   0.00000  -0.00120  -0.00073  -5.99939
    Y6        2.23882  -0.00000   0.00000  -0.00078  -0.00069   2.23813
    Z6        0.00000  -0.00000   0.00000  -0.00000   0.00000   0.00000
    X7       -0.40471  -0.00001   0.00000  -0.00065  -0.00053  -0.40525
    Y7       -2.60857  -0.00001   0.00000   0.00032  -0.00000  -2.60857
    Z7       -1.66778  -0.00001   0.00000   0.00002   0.00002  -1.66775
    X8        3.54113  -0.00001   0.00000  -0.00004   0.00022   3.54135
    Y8       -0.58469   0.00000   0.00000  -0.00070  -0.00131  -0.58600
    Z8        0.00000  -0.00000   0.00000  -0.00000  -0.00000  -0.00000
    X9       -0.40471  -0.00001   0.00000  -0.00065  -0.00053  -0.40525
    Y9       -2.60857  -0.00001   0.00000   0.00032  -0.00000  -2.60857
    Z9        1.66778   0.00001   0.00000  -0.00002  -0.00002   1.66775
   X10       -4.84458  -0.00008   0.00000  -0.00369  -0.00311  -4.84769
   Y10        3.67903   0.00000   0.00000   0.00093   0.00094   3.67997
   Z10        0.00000   0.00000   0.00000   0.00000   0.00000   0.00000
         Item               Value     Threshold  Converged?
 Maximum Force            0.000079     0.000450     YES
 RMS     Force            0.000020     0.000300     YES
 Maximum Displacement     0.003111     0.001800     NO 
 RMS     Displacement     0.000827     0.001200     YES
 Predicted change in Energy=-1.569410D-07
 GradGradGradGradGradGradGradGradGradGradGradGradGradGradGradGradGradGrad

 Leave Link  103 at Mon May 27 10:33:24 2024, MaxMem=   536870912 cpu:               2.0 elap:               0.1
 (Enter /home/ely/Documents/g16/g16rheticus/g16_a03/cpu/g16/l9999.exe)

 ----------------------------------------------------------------------

 Electric dipole moment (input orientation):
 (Debye = 10**-18 statcoulomb cm , SI units = C m)
                  (au)            (Debye)         (10**-30 SI)
   Tot        0.184809D+00      0.469737D+00      0.156687D+01
   x          0.131068D+00      0.333142D+00      0.111124D+01
   y          0.130290D+00      0.331163D+00      0.110464D+01
   z          0.000000D+00      0.000000D+00      0.000000D+00

 Dipole polarizability, Alpha (input orientation).
 (esu units = cm**3 , SI units = C**2 m**2 J**-1)
 Alpha(0;0):
               (au)            (10**-24 esu)      (10**-40 SI)
   iso        0.578802D+02      0.857696D+01      0.954315D+01
   aniso      0.296240D+02      0.438982D+01      0.488433D+01
   xx         0.731866D+02      0.108451D+02      0.120668D+02
   yx        -0.492252D+00     -0.729442D-01     -0.811614D-01
   yy         0.610237D+02      0.904277D+01      0.100614D+02
   zx         0.000000D+00      0.000000D+00      0.000000D+00
   zy         0.000000D+00      0.000000D+00      0.000000D+00
   zz         0.394302D+02      0.584296D+01      0.650117D+01

 ----------------------------------------------------------------------

 Dipole orientation:
     6          0.72453716         -0.72886769         -1.01128506
     6         -2.36110445          2.37521669         -3.10402079
     8         -2.04214866          2.05435451          1.35930031
     6         -1.26081997          1.26835584         -0.63331683
     8         -1.68089693          1.69094359         -5.15715050
     8         -4.10084520          4.12535580         -2.67595105
     1          2.28591495          0.06607481         -2.12605742
    35          2.05235245         -2.06461929          2.09920188
     1         -0.07969564         -2.28548062         -2.12605742
     1         -4.24733798          4.27272417         -0.84212653

 Electric dipole moment (dipole orientation):
 (Debye = 10**-18 statcoulomb cm , SI units = C m)
                  (au)            (Debye)         (10**-30 SI)
   Tot        0.184809D+00      0.469737D+00      0.156687D+01
   x          0.000000D+00      0.000000D+00      0.000000D+00
   y          0.000000D+00      0.000000D+00      0.000000D+00
   z          0.184809D+00      0.469737D+00      0.156687D+01

 Dipole polarizability, Alpha (dipole orientation).
 (esu units = cm**3 , SI units = C**2 m**2 J**-1)
 Alpha(0;0):
               (au)            (10**-24 esu)      (10**-40 SI)
   iso        0.578802D+02      0.857696D+01      0.954315D+01
   aniso      0.296240D+02      0.438982D+01      0.488433D+01
   xx         0.534119D+02      0.791482D+01      0.880643D+01
   yx        -0.140652D+02     -0.208425D+01     -0.231904D+01
   yy         0.535795D+02      0.793966D+01      0.883407D+01
   zx         0.428941D+01      0.635625D+00      0.707228D+00
   zy        -0.431505D+01     -0.639424D+00     -0.711455D+00
   zz         0.666491D+02      0.987638D+01      0.109890D+02

 ----------------------------------------------------------------------
 1\1\GINC-LIGHT3\Freq\RwB97XD\Gen\C3H3Br1O3\ELY\27-May-2024\0\\#p wB97X
 D gen freq\\3bp PES\\0,1\C,0.0038752508,-0.762978493,0.\C,-2.414375587
 7,0.0988990138,0.\O,-0.5705157855,1.5942293436,0.\C,-0.9048797583,0.43
 49146211,0.\O,-2.8249608268,-1.0291601747,0.\O,-3.1743530095,1.1847319
 691,0.\H,-0.2141646941,-1.3803939584,-0.8825498138\Br,1.8738845,-0.309
 4039546,0.\H,-0.2141646941,-1.3803939584,0.8825498138\H,-2.5636429038,
 1.9468576063,0.\\Version=ES64L-G16RevA.03\State=1-A'\HF=-2915.9033281\
 RMSD=3.464e-09\RMSF=1.970e-05\ZeroPoint=0.0629586\Thermal=0.0700941\Di
 pole=0.1310683,0.1302895,0.\DipoleDeriv=0.5021908,0.1299757,0.,0.33766
 33,-0.2847752,0.,0.,0.,0.0091733,1.1034669,-0.2550655,0.,-0.0913528,1.
 5797036,0.,0.,0.,0.2983782,-0.6553507,0.0023655,0.,0.0966804,-0.876519
 7,0.,0.,0.,-0.2559354,0.6253717,-0.0727093,0.,-0.4216219,0.994279,0.,0
 .,0.,0.2312795,-0.7394255,-0.2102266,0.,-0.0665093,-0.946363,0.,0.,0.,
 -0.3285363,-0.8362415,0.5172218,0.,0.3027373,-1.0219578,0.,0.,0.,-0.32
 17828,-0.0579028,-0.0076673,-0.0361401,-0.0242771,0.1077137,-0.0076713
 ,-0.0210007,-0.0161111,0.0822962,-0.3296171,0.0156647,0.,-0.0641878,-0
 .0538407,0.,0.,0.,-0.1076201,-0.0579028,-0.0076673,0.0361401,-0.024277
 1,0.1077137,0.0076713,0.0210007,0.0161111,0.0822962,0.445411,-0.111891
 6,0.,-0.0448549,0.3940465,0.,0.,0.,0.3104513\Polar=73.1866091,-0.49225
 21,61.0236655,0.,0.,39.4302389\Quadrupole=-5.4703452,2.0028506,3.46749
 46,-3.8182302,0.,0.\PG=CS [SG(C3H1Br1O3),X(H2)]\NImag=0\\0.37920376,0.
 00276238,0.48043068,0.,0.,0.53043686,-0.01781978,0.00074174,0.,0.60540
 770,0.02541854,0.00991021,0.,0.12379474,1.09448517,0.,0.,0.01931033,0.
 ,0.,0.18057343,0.01690467,0.01674497,0.,-0.00949013,-0.03637107,0.,0.1
 7250445,-0.00648541,-0.05856875,0.,-0.01272662,-0.03793637,0.,0.221434
 05,0.83102012,0.,0.,0.02203141,0.,0.,0.02478686,0.,0.,0.02454861,-0.14
 412124,0.06584551,0.,-0.16449044,0.02937218,0.,-0.16444109,-0.19090741
 ,0.,0.52426015,0.06657596,-0.13356701,0.,0.00875282,-0.06322260,0.,-0.
 18767138,-0.74148529,0.,0.09950472,1.00671797,0.,0.,-0.08286805,0.,0.,
 -0.10469509,0.,0.,-0.05901637,0.,0.,0.19543005,-0.00014846,0.00256552,
 0.,-0.21273716,-0.24585773,0.,-0.01337404,-0.01021588,0.,0.00208367,-0
 .03966138,0.,0.19588765,-0.00187166,-0.00077154,0.,-0.24820804,-0.7016
 1617,0.,-0.01260537,0.00003532,0.,-0.01267741,-0.02462316,0.,0.2640148
 4,0.82405670,0.,0.,-0.00531510,0.,0.,-0.06576178,0.,0.,-0.00366736,0.,
 0.,0.02529721,0.,0.,0.02861238,-0.00429072,-0.00408118,0.,-0.23241361,
 0.08981008,0.,-0.00685935,0.00123551,0.,-0.03554920,0.03568448,0.,0.03
 835984,-0.00004312,0.,0.46995597,-0.00037839,0.00232281,0.,0.14924505,
 -0.24549607,0.,-0.00930656,0.01330786,0.,0.00300267,-0.01686456,0.,0.0
 2455051,-0.10004303,0.,0.06065215,0.63925430,0.,0.,-0.00131383,0.,0.,-
 0.04868035,0.,0.,-0.00060601,0.,0.,0.02100745,0.,0.,0.01214293,0.,0.,0
 .03339286,-0.04712646,-0.02569312,-0.04470955,0.00000180,0.00111665,-0
 .00195706,-0.00221229,0.00397255,-0.00211502,0.00883391,0.00531696,0.0
 1578842,-0.00177365,-0.00088043,0.00027839,-0.00014771,-0.00075765,0.0
 0047676,0.05676378,-0.02619902,-0.13145477,-0.13569774,0.00034157,-0.0
 0104794,0.00249222,0.00359786,-0.00281473,0.00258963,-0.00598999,-0.01
 549073,-0.02214906,-0.00021100,0.00062409,-0.00021179,0.00010433,0.000
 22856,-0.00023392,0.02807452,0.14028249,-0.04308089,-0.13056120,-0.227
 62876,-0.00004958,-0.00241960,-0.00030296,0.00003250,0.00176730,-0.001
 08833,0.00020350,0.00190438,0.00149027,-0.00089469,0.00126741,0.000579
 40,-0.00003551,0.00073732,0.00003135,0.04365231,0.13912122,0.24140471,
 -0.13465824,-0.03024604,0.,0.00296732,0.00314739,0.,0.00366528,-0.0014
 9667,0.,-0.03356394,-0.01010996,0.,-0.00058365,0.00040973,0.,-0.002962
 78,0.00163264,0.,-0.01684045,-0.00159013,0.00365317,0.19920655,-0.0331
 1798,-0.03554477,0.,0.00002326,-0.00380370,0.,0.00371405,0.00203465,0.
 ,0.01501161,0.00310833,0.,-0.00064181,0.00119558,0.,0.00101827,0.00031
 762,0.,-0.01336993,-0.00084023,0.00360009,0.04070563,0.03411184,0.,0.,
 -0.02813777,0.,0.,0.00126423,0.,0.,-0.00086528,0.,0.,0.00145086,0.,0.,
 0.00011514,0.,0.,-0.00009791,-0.01475490,-0.00145226,0.00460569,0.,0.,
 0.01707598,-0.04712646,-0.02569312,0.04470955,0.00000181,0.00111665,0.
 00195706,-0.00221229,0.00397255,0.00211502,0.00883391,0.00531696,-0.01
 578842,-0.00177365,-0.00088043,-0.00027839,-0.00014771,-0.00075765,-0.
 00047676,0.00186174,0.00220644,-0.00339533,-0.01684045,-0.01336993,0.0
 1475490,0.05676378,-0.02619902,-0.13145477,0.13569774,0.00034157,-0.00
 104794,-0.00249222,0.00359786,-0.00281473,-0.00258963,-0.00598999,-0.0
 1549073,0.02214906,-0.00021100,0.00062409,0.00021179,0.00010433,0.0002
 2856,0.00023392,0.00220644,0.01060959,-0.01539509,-0.00159013,-0.00084
 023,0.00145226,0.02807452,0.14028249,0.04308089,0.13056120,-0.22762876
 ,0.00004958,0.00241960,-0.00030296,-0.00003250,-0.00176730,-0.00108833
 ,-0.00020350,-0.00190438,0.00149028,0.00089469,-0.00126741,0.00057940,
 0.00003551,-0.00073732,0.00003135,0.00339533,0.01539509,-0.01907724,-0
 .00365317,-0.00360009,0.00460569,-0.04365231,-0.13912122,0.24140471,-0
 .00081707,-0.00294667,0.,0.02857250,0.00845256,0.,0.00551480,-0.008782
 68,0.,-0.00184574,0.01629082,0.,-0.00594054,0.01274189,0.,-0.22594474,
 -0.22788276,0.,0.00063932,-0.00033458,-0.00008548,-0.00038965,0.000026
 83,0.,0.00063932,-0.00033458,0.00008548,0.19957180,-0.00050541,-0.0013
 0210,0.,-0.02230609,-0.05022459,0.,-0.00313440,-0.00277809,0.,0.002828
 10,0.00091777,0.,0.00566794,0.00051813,0.,-0.18448485,-0.29325605,0.,0
 .00001400,-0.00009632,-0.00002185,-0.00086246,0.00026092,0.,0.00001400
 ,-0.00009632,0.00002185,0.20276917,0.34605666,0.,0.,0.00111368,0.,0.,-
 0.00619170,0.,0.,-0.00503520,0.,0.,0.00041338,0.,0.,0.00741777,0.,0.,-
 0.01590784,-0.00005469,0.00014662,-0.00001413,0.,0.,-0.00001662,0.0000
 5469,-0.00014662,-0.00001413,0.,0.,0.01823479\\-0.00001015,-0.00001426
 ,0.,0.00001215,0.00000892,0.,-0.00004700,-0.00000113,0.,-0.00001437,0.
 00001967,0.,-0.00001470,-0.00002175,0.,-0.00003249,0.00000104,0.,0.000
 01016,0.00000538,0.00000528,0.00000769,-0.00000061,0.,0.00001016,0.000
 00538,-0.00000528,0.00007855,-0.00000265,0.\\\@


 IF THERE IS ONE WAY BETTER THAN ANOTHER IT IS THE WAY OF NATURE.

                          -- ARISTOTLE
 Job cpu time:       0 days  0 hours 13 minutes 23.6 seconds.
 Elapsed time:       0 days  0 hours  0 minutes 59.4 seconds.
 File lengths (MBytes):  RWF=     29 Int=      0 D2E=      0 Chk=      2 Scr=      1
 Normal termination of Gaussian 16 at Mon May 27 10:33:24 2024.
