 Entering Gaussian System, Link 0=/home/ely/Documents/g16/g16rheticus/g16_a03/cpu/g16/g16
 Initial command:
 /home/ely/Documents/g16/g16rheticus/g16_a03/cpu/g16/l1.exe "/tmp/Gau-3716160.inp" -scrdir="/tmp/"
 Entering Link 1 = /home/ely/Documents/g16/g16rheticus/g16_a03/cpu/g16/l1.exe PID=   3716162.
  
 Copyright (c) 1988,1990,1992,1993,1995,1998,2003,2009,2016,
            Gaussian, Inc.  All Rights Reserved.
  
 This is part of the Gaussian(R) 16 program.  It is based on
 the Gaussian(R) 09 system (copyright 2009, Gaussian, Inc.),
 the Gaussian(R) 03 system (copyright 2003, Gaussian, Inc.),
 the Gaussian(R) 98 system (copyright 1998, Gaussian, Inc.),
 the Gaussian(R) 94 system (copyright 1995, Gaussian, Inc.),
 the Gaussian 92(TM) system (copyright 1992, Gaussian, Inc.),
 the Gaussian 90(TM) system (copyright 1990, Gaussian, Inc.),
 the Gaussian 88(TM) system (copyright 1988, Gaussian, Inc.),
 the Gaussian 86(TM) system (copyright 1986, Carnegie Mellon
 University), and the Gaussian 82(TM) system (copyright 1983,
 Carnegie Mellon University). Gaussian is a federally registered
 trademark of Gaussian, Inc.
  
 This software contains proprietary and confidential information,
 including trade secrets, belonging to Gaussian, Inc.
  
 This software is provided under written license and may be
 used, copied, transmitted, or stored only in accord with that
 written license.
  
 The following legend is applicable only to US Government
 contracts under FAR:
  
                    RESTRICTED RIGHTS LEGEND
  
 Use, reproduction and disclosure by the US Government is
 subject to restrictions as set forth in subparagraphs (a)
 and (c) of the Commercial Computer Software - Restricted
 Rights clause in FAR 52.227-19.
  
 Gaussian, Inc.
 340 Quinnipiac St., Bldg. 40, Wallingford CT 06492
  
  
 ---------------------------------------------------------------
 Warning -- This program may not be used in any manner that
 competes with the business of Gaussian, Inc. or will provide
 assistance to any competitor of Gaussian, Inc.  The licensee
 of this program is prohibited from giving any competitor of
 Gaussian, Inc. access to this program.  By using this program,
 the user acknowledges that Gaussian, Inc. is engaged in the
 business of creating and licensing software in the field of
 computational chemistry and represents and warrants to the
 licensee that it is not a competitor of Gaussian, Inc. and that
 it will not use this program in any manner prohibited above.
 ---------------------------------------------------------------
  

 Cite this work as:
 Gaussian 16, Revision A.03,
 M. J. Frisch, G. W. Trucks, H. B. Schlegel, G. E. Scuseria, 
 M. A. Robb, J. R. Cheeseman, G. Scalmani, V. Barone, 
 G. A. Petersson, H. Nakatsuji, X. Li, M. Caricato, A. V. Marenich, 
 J. Bloino, B. G. Janesko, R. Gomperts, B. Mennucci, H. P. Hratchian, 
 J. V. Ortiz, A. F. Izmaylov, J. L. Sonnenberg, D. Williams-Young, 
 F. Ding, F. Lipparini, F. Egidi, J. Goings, B. Peng, A. Petrone, 
 T. Henderson, D. Ranasinghe, V. G. Zakrzewski, J. Gao, N. Rega, 
 G. Zheng, W. Liang, M. Hada, M. Ehara, K. Toyota, R. Fukuda, 
 J. Hasegawa, M. Ishida, T. Nakajima, Y. Honda, O. Kitao, H. Nakai, 
 T. Vreven, K. Throssell, J. A. Montgomery, Jr., J. E. Peralta, 
 F. Ogliaro, M. J. Bearpark, J. J. Heyd, E. N. Brothers, K. N. Kudin, 
 V. N. Staroverov, T. A. Keith, R. Kobayashi, J. Normand, 
 K. Raghavachari, A. P. Rendell, J. C. Burant, S. S. Iyengar, 
 J. Tomasi, M. Cossi, J. M. Millam, M. Klene, C. Adamo, R. Cammi, 
 J. W. Ochterski, R. L. Martin, K. Morokuma, O. Farkas, 
 J. B. Foresman, and D. J. Fox, Gaussian, Inc., Wallingford CT, 2016.
 
 ******************************************
 Gaussian 16:  ES64L-G16RevA.03 25-Dec-2016
                22-Apr-2024 
 ******************************************
 %chk="freq.chk"
 %nproc=16
 Will use up to   16 processors via shared memory.
 %mem=4GB
 ------------------------
 # wB97XD gen NoSymm freq
 ------------------------
 1/10=4,30=1,38=1/1,3;
 2/12=2,15=1,17=6,18=5,40=1/2;
 3/5=7,11=2,25=1,30=1,71=2,74=-58,140=1/1,2,3;
 4//1;
 5/5=2,38=5,98=1/2;
 8/6=4,10=90,11=11/1;
 11/6=1,8=1,9=11,15=111,16=1,31=1/1,2,10;
 10/6=1,31=1/2;
 6/7=2,8=2,9=2,10=2,28=1/1;
 7/8=1,10=1,25=1,30=1/1,2,3,16;
 1/10=4,30=1/3;
 99//99;
 -------
 3bp PES
 -------
 Symbolic Z-matrix:
 Charge =  0 Multiplicity = 1
 C                     0.23841  -0.74469   0.00032 
 C                    -2.28551  -0.27498   0.0001 
 O                    -0.70055   1.49243  -0.00008 
 C                    -0.8479    0.29489   0.00009 
 O                    -2.51305  -1.45368   0.00027 
 O                    -3.20722   0.6774   -0.0001 
 H                     0.12051  -1.38891  -0.88213 
 Br                    2.01348  -0.00187   0.00029 
 H                     0.12042  -1.38862   0.88297 
 H                    -2.72435   1.52631  -0.0002 
 

 GradGradGradGradGradGradGradGradGradGradGradGradGradGradGradGradGradGrad
 Berny optimization.
 Initialization pass.
 Trust Radius=3.00D-01 FncErr=1.00D-07 GrdErr=1.00D-07 EigMax=2.50D+02 EigMin=1.00D-04
 Number of steps in this run=      2 maximum allowed number of steps=      2.
 GradGradGradGradGradGradGradGradGradGradGradGradGradGradGradGradGradGrad

                          Input orientation:                          
 ---------------------------------------------------------------------
 Center     Atomic      Atomic             Coordinates (Angstroms)
 Number     Number       Type             X           Y           Z
 ---------------------------------------------------------------------
      1          6           0        0.238406   -0.744691    0.000318
      2          6           0       -2.285508   -0.274983    0.000099
      3          8           0       -0.700553    1.492430   -0.000084
      4          6           0       -0.847897    0.294891    0.000093
      5          8           0       -2.513049   -1.453678    0.000269
      6          8           0       -3.207222    0.677405   -0.000101
      7          1           0        0.120514   -1.388911   -0.882133
      8         35           0        2.013479   -0.001873    0.000289
      9          1           0        0.120422   -1.388623    0.882966
     10          1           0       -2.724350    1.526308   -0.000204
 ---------------------------------------------------------------------
                    Distance matrix (angstroms):
                    1          2          3          4          5
     1  C    0.000000
     2  C    2.567249   0.000000
     3  O    2.426181   2.373991   0.000000
     4  C    1.503590   1.546442   1.206569   0.000000
     5  O    2.841332   1.200457   3.459002   2.414586   0.000000
     6  O    3.727561   1.325367   2.635841   2.390133   2.241293
     7  H    1.098925   2.794300   3.123185   2.133384   2.778215
     8  Br   1.924231   4.307654   3.098211   2.876724   4.753651
     9  H    1.098926   2.794306   3.123178   2.133383   2.778228
    10  H    3.733010   1.853977   2.024081   2.244430   2.987469
                    6          7          8          9         10
     6  O    0.000000
     7  H    4.015155   0.000000
     8  Br   5.264707   2.507162   0.000000
     9  H    4.015158   1.765100   2.507162   0.000000
    10  H    0.976628   4.167679   4.978189   4.167678   0.000000
 Symmetry turned off by external request.
 Stoichiometry    C3H3BrO3
 Framework group  C1[X(C3H3BrO3)]
 Deg. of freedom    24
 Full point group                 C1      NOp   1
 Rotational constants (GHZ):           5.4264129           0.7517457           0.6629947
 General basis read from cards:  (5D, 7F)
   135 basis functions,   376 primitive gaussians,   144 cartesian basis functions
    40 alpha electrons       40 beta electrons
       nuclear repulsion energy       468.6865652075 Hartrees.
 NAtoms=   10 NActive=   10 NUniq=   10 SFac= 1.00D+00 NAtFMM=   60 NAOKFM=F Big=F
 Integral buffers will be    131072 words long.
 Raffenetti 2 integral format.
 Two-electron integral symmetry is turned off.
 Nuclear repulsion after empirical dispersion term =      468.6832767174 Hartrees.
 One-electron integrals computed using PRISM.
 NBasis=   135 RedAO= T EigKep=  2.36D-03  NBF=   135
 NBsUse=   135 1.00D-06 EigRej= -1.00D+00 NBFU=   135
 ExpMin= 4.10D-02 ExpMax= 6.40D+05 ExpMxC= 6.18D+03 IAcc=3 IRadAn=         5 AccDes= 0.00D+00
 Harris functional with IExCor= 4639 and IRadAn=       5 diagonalized for initial guess.
 HarFok:  IExCor= 4639 AccDes= 0.00D+00 IRadAn=         5 IDoV= 1 UseB2=F ITyADJ=14
 ICtDFT=  3500011 ScaDFX=  1.000000  1.000000  1.000000  1.000000
 FoFCou: FMM=F IPFlag=           0 FMFlag=      100000 FMFlg1=           0
         NFxFlg=           0 DoJE=T BraDBF=F KetDBF=T FulRan=T
         wScrn=  0.000000 ICntrl=       500 IOpCl=  0 I1Cent=   200000004 NGrid=           0
         NMat0=    1 NMatS0=      1 NMatT0=    0 NMatD0=    1 NMtDS0=    0 NMtDT0=    0
 Symmetry not used in FoFCou.
 Keep R1 ints in memory in canonical form, NReq=99817700.
 Requested convergence on RMS density matrix=1.00D-08 within 128 cycles.
 Requested convergence on MAX density matrix=1.00D-06.
 Requested convergence on             energy=1.00D-06.
 No special actions if energy rises.
 SCF Done:  E(RwB97XD) =  -2915.90332638     A.U. after   14 cycles
            NFock= 14  Conv=0.35D-08     -V/T= 2.0019
 DoSCS=F DFT=T ScalE2(SS,OS)=  1.000000  1.000000
 Range of M.O.s used for correlation:     1   135
 NBasis=   135 NAE=    40 NBE=    40 NFC=     0 NFV=     0
 NROrb=    135 NOA=    40 NOB=    40 NVA=    95 NVB=    95
 Symmetrizing basis deriv contribution to polar:
 IMax=3 JMax=2 DiffMx= 0.00D+00
 G2DrvN: will do    11 centers at a time, making    1 passes.
 Calling FoFCou, ICntrl=  3107 FMM=F I1Cent=   0 AccDes= 0.00D+00.
 End of G2Drv F.D. properties file   721 does not exist.
 End of G2Drv F.D. properties file   722 does not exist.
 End of G2Drv F.D. properties file   788 does not exist.
          IDoAtm=1111111111
          Differentiating once with respect to electric field.
                with respect to dipole field.
          Differentiating once with respect to nuclear coordinates.
 Keep R1 ints in memory in canonical form, NReq=99771399.
          There are    33 degrees of freedom in the 1st order CPHF.  IDoFFX=6 NUNeed=     3.
     30 vectors produced by pass  0 Test12= 1.15D-14 3.03D-09 XBig12= 3.20D+01 2.74D+00.
 AX will form    30 AO Fock derivatives at one time.
     30 vectors produced by pass  1 Test12= 1.15D-14 3.03D-09 XBig12= 6.70D+00 5.28D-01.
     30 vectors produced by pass  2 Test12= 1.15D-14 3.03D-09 XBig12= 2.93D-01 1.13D-01.
     30 vectors produced by pass  3 Test12= 1.15D-14 3.03D-09 XBig12= 7.03D-03 1.35D-02.
     30 vectors produced by pass  4 Test12= 1.15D-14 3.03D-09 XBig12= 7.86D-05 1.57D-03.
     30 vectors produced by pass  5 Test12= 1.15D-14 3.03D-09 XBig12= 5.64D-07 1.19D-04.
     28 vectors produced by pass  6 Test12= 1.15D-14 3.03D-09 XBig12= 3.18D-09 1.06D-05.
     14 vectors produced by pass  7 Test12= 1.15D-14 3.03D-09 XBig12= 1.45D-11 6.96D-07.
      3 vectors produced by pass  8 Test12= 1.15D-14 3.03D-09 XBig12= 6.63D-14 3.92D-08.
 InvSVY:  IOpt=1 It=  1 EMax= 5.33D-15
 Solved reduced A of dimension   225 with    33 vectors.
 Isotropic polarizability for W=    0.000000       57.85 Bohr**3.
 End of Minotr F.D. properties file   721 does not exist.
 End of Minotr F.D. properties file   722 does not exist.
 End of Minotr F.D. properties file   788 does not exist.

 **********************************************************************

            Population analysis using the SCF density.

 **********************************************************************

 Alpha  occ. eigenvalues -- -483.17068 -62.72258 -56.51487 -56.51118 -56.51114
 Alpha  occ. eigenvalues --  -19.33927 -19.32601 -19.28679 -10.46106 -10.44548
 Alpha  occ. eigenvalues --  -10.38869  -8.84968  -6.67244  -6.65843  -6.65832
 Alpha  occ. eigenvalues --   -2.77198  -2.76795  -2.76787  -2.75658  -2.75658
 Alpha  occ. eigenvalues --   -1.25013  -1.20713  -1.16008  -0.94853  -0.85116
 Alpha  occ. eigenvalues --   -0.76333  -0.71739  -0.64665  -0.60539  -0.59081
 Alpha  occ. eigenvalues --   -0.55851  -0.55634  -0.52720  -0.50075  -0.48305
 Alpha  occ. eigenvalues --   -0.44652  -0.43240  -0.38551  -0.38105  -0.36713
 Alpha virt. eigenvalues --   -0.02911   0.04515   0.09893   0.10878   0.12383
 Alpha virt. eigenvalues --    0.12475   0.13142   0.15795   0.20507   0.20607
 Alpha virt. eigenvalues --    0.25036   0.31312   0.31653   0.32871   0.33367
 Alpha virt. eigenvalues --    0.35910   0.38108   0.39745   0.47282   0.50033
 Alpha virt. eigenvalues --    0.52801   0.54593   0.57241   0.60228   0.62374
 Alpha virt. eigenvalues --    0.65985   0.66525   0.68060   0.69780   0.71294
 Alpha virt. eigenvalues --    0.73305   0.74795   0.75166   0.78754   0.82155
 Alpha virt. eigenvalues --    0.86808   0.90197   0.98330   0.99795   1.01079
 Alpha virt. eigenvalues --    1.02022   1.05142   1.05711   1.05863   1.06879
 Alpha virt. eigenvalues --    1.07573   1.09063   1.09363   1.10343   1.14164
 Alpha virt. eigenvalues --    1.17088   1.20297   1.22625   1.26062   1.29078
 Alpha virt. eigenvalues --    1.40127   1.42282   1.45715   1.46091   1.57869
 Alpha virt. eigenvalues --    1.58757   1.66766   1.69829   1.70140   1.70967
 Alpha virt. eigenvalues --    1.73837   1.83316   1.83711   1.92917   1.96296
 Alpha virt. eigenvalues --    2.02077   2.02970   2.04089   2.15407   2.17488
 Alpha virt. eigenvalues --    2.24303   2.27722   2.46230   2.49585   2.54436
 Alpha virt. eigenvalues --    2.66931   2.73157   2.75247   2.77720   2.86846
 Alpha virt. eigenvalues --    2.97968   3.10654   3.14789   3.23802   3.28558
 Alpha virt. eigenvalues --    3.43120   3.44319   3.54557   3.59552   3.78183
          Condensed to atoms (all electrons):
               1          2          3          4          5          6
     1  C    5.078223  -0.069650  -0.083613   0.227756   0.026465   0.005204
     2  C   -0.069650   4.501415  -0.056502   0.219737   0.762686   0.462230
     3  O   -0.083613  -0.056502   7.572452   0.683695   0.001336  -0.005538
     4  C    0.227756   0.219737   0.683695   5.075399  -0.098546  -0.088266
     5  O    0.026465   0.762686   0.001336  -0.098546   7.557040  -0.048308
     6  O    0.005204   0.462230  -0.005538  -0.088266  -0.048308   7.458863
     7  H    0.384259  -0.001487   0.000310  -0.015386   0.003946   0.000131
     8  Br   0.203885   0.009518   0.030866  -0.056886  -0.001992  -0.000928
     9  H    0.384259  -0.001487   0.000310  -0.015386   0.003946   0.000131
    10  H    0.003476  -0.039133   0.037319  -0.014127   0.003240   0.349646
               7          8          9         10
     1  C    0.384259   0.203885   0.384259   0.003476
     2  C   -0.001487   0.009518  -0.001487  -0.039133
     3  O    0.000310   0.030866   0.000310   0.037319
     4  C   -0.015386  -0.056886  -0.015386  -0.014127
     5  O    0.003946  -0.001992   0.003946   0.003240
     6  O    0.000131  -0.000928   0.000131   0.349646
     7  H    0.544739  -0.027690  -0.019563  -0.000103
     8  Br  -0.027690  34.920314  -0.027690  -0.000688
     9  H   -0.019563  -0.027690   0.544739  -0.000103
    10  H   -0.000103  -0.000688  -0.000103   0.484259
 Mulliken charges:
               1
     1  C   -0.160263
     2  C    0.212674
     3  O   -0.180635
     4  C    0.082012
     5  O   -0.209814
     6  O   -0.133166
     7  H    0.130844
     8  Br  -0.048710
     9  H    0.130844
    10  H    0.176214
 Sum of Mulliken charges =  -0.00000
 Mulliken charges with hydrogens summed into heavy atoms:
               1
     1  C    0.101424
     2  C    0.212674
     3  O   -0.180635
     4  C    0.082012
     5  O   -0.209814
     6  O    0.043048
     8  Br  -0.048710
 APT charges:
               1
     1  C    0.075419
     2  C    0.993942
     3  O   -0.595762
     4  C    0.617458
     5  O   -0.671687
     6  O   -0.726217
     7  H    0.044098
     8  Br  -0.163489
     9  H    0.044097
    10  H    0.382142
 Sum of APT charges =   0.00000
 APT charges with hydrogens summed into heavy atoms:
               1
     1  C    0.163613
     2  C    0.993942
     3  O   -0.595762
     4  C    0.617458
     5  O   -0.671687
     6  O   -0.344074
     8  Br  -0.163489
 Electronic spatial extent (au):  <R**2>=           1451.7139
 Charge=             -0.0000 electrons
 Dipole moment (field-independent basis, Debye):
    X=              0.2770    Y=              0.3796    Z=             -0.0000  Tot=              0.4700
 Quadrupole moment (field-independent basis, Debye-Ang):
   XX=            -59.9456   YY=            -53.5867   ZZ=            -49.7677
   XY=             -6.4487   XZ=              0.0005   YZ=              0.0003
 Traceless Quadrupole moment (field-independent basis, Debye-Ang):
   XX=             -5.5123   YY=              0.8467   ZZ=              4.6656
   XY=             -6.4487   XZ=              0.0005   YZ=              0.0003
 Octapole moment (field-independent basis, Debye-Ang**2):
  XXX=             72.9320  YYY=              7.4862  ZZZ=             -0.0253  XYY=             14.6459
  XXY=             24.2693  XXZ=             -0.0117  XZZ=              9.2636  YZZ=             -0.6530
  YYZ=             -0.0103  XYZ=             -0.0007
 Hexadecapole moment (field-independent basis, Debye-Ang**3):
 XXXX=          -1342.3415 YYYY=           -249.4528 ZZZZ=            -54.9750 XXXY=            -33.8900
 XXXZ=             -0.0194 YYYX=            -31.0489 YYYZ=              0.0165 ZZZX=             -0.0271
 ZZZY=              0.0129 XXYY=           -251.6621 XXZZ=           -217.0231 YYZZ=            -46.9798
 XXYZ=              0.0080 YYXZ=             -0.0038 ZZXY=             -0.4805
 N-N= 4.686832767174D+02 E-N=-7.890617537801D+03  KE= 2.910402192065D+03
  Exact polarizability:  72.970   1.429  61.162   0.002  -0.003  39.420
 Approx polarizability:  71.259   4.461  81.942   0.001  -0.005  47.307
 Calling FoFJK, ICntrl=    100127 FMM=F ISym2X=0 I1Cent= 0 IOpClX= 0 NMat=1 NMatS=1 NMatT=0.
 Full mass-weighted force constant matrix:
 Low frequencies ---   -5.7873   -0.0115   -0.0107   -0.0016    2.2765    6.6382
 Low frequencies ---   56.8672  102.1489  147.2717
 Diagonal vibrational polarizability:
       24.5274405       7.6158212      70.7711904
 Harmonic frequencies (cm**-1), IR intensities (KM/Mole), Raman scattering
 activities (A**4/AMU), depolarization ratios for plane and unpolarized
 incident light, reduced masses (AMU), force constants (mDyne/A),
 and normal coordinates:
                      1                      2                      3
                      A                      A                      A
 Frequencies --     56.8561               102.1480               147.2710
 Red. masses --      4.0333                 5.6221                 9.7463
 Frc consts  --      0.0077                 0.0346                 0.1245
 IR Inten    --      4.9073                 8.5792                 4.2487
  Atom  AN      X      Y      Z        X      Y      Z        X      Y      Z
     1   6    -0.00   0.00   0.33    -0.00   0.00   0.24    -0.09   0.29  -0.00
     2   6     0.00  -0.00  -0.04     0.00  -0.00  -0.02     0.01   0.04  -0.00
     3   8    -0.00   0.00   0.19     0.00  -0.00  -0.28    -0.24   0.32  -0.00
     4   6    -0.00   0.00   0.16     0.00  -0.00  -0.06    -0.09   0.30  -0.00
     5   8     0.00  -0.00  -0.08     0.00  -0.00  -0.28     0.30  -0.02   0.00
     6   8     0.00  -0.00  -0.18    -0.00   0.00   0.33    -0.23  -0.20   0.00
     7   1    -0.10  -0.27   0.55    -0.01  -0.29   0.45    -0.19   0.29   0.01
     8  35     0.00  -0.00  -0.07    -0.00   0.00   0.01     0.07  -0.12   0.00
     9   1     0.10   0.27   0.55     0.01   0.29   0.45    -0.19   0.29  -0.01
    10   1     0.00  -0.00  -0.10    -0.00   0.00   0.31    -0.46  -0.07  -0.00
                      4                      5                      6
                      A                      A                      A
 Frequencies --    215.6237               368.3804               383.3028
 Red. masses --     20.1494                 6.7574                 3.7345
 Frc consts  --      0.5520                 0.5403                 0.3233
 IR Inten    --      8.5490                34.7780                 9.8701
  Atom  AN      X      Y      Z        X      Y      Z        X      Y      Z
     1   6     0.09   0.12  -0.00     0.01   0.12  -0.00    -0.00   0.00   0.02
     2   6    -0.33  -0.09  -0.00     0.13  -0.10   0.00    -0.00   0.00   0.23
     3   8    -0.42  -0.08  -0.00    -0.37   0.06  -0.00    -0.00  -0.00  -0.17
     4   6    -0.20  -0.11   0.00    -0.00  -0.00  -0.00    -0.00   0.00   0.36
     5   8    -0.65  -0.03  -0.00     0.03  -0.09   0.00     0.00  -0.00  -0.12
     6   8    -0.15   0.10  -0.00     0.42   0.13   0.00     0.00  -0.00  -0.09
     7   1     0.17   0.09   0.00    -0.06   0.11   0.01    -0.12   0.51  -0.34
     8  35     0.31   0.01   0.00    -0.04  -0.02   0.00    -0.00  -0.00  -0.01
     9   1     0.17   0.09  -0.00    -0.06   0.11  -0.01     0.12  -0.51  -0.34
    10   1     0.02   0.00   0.00     0.76  -0.05   0.00     0.00  -0.00  -0.02
                      7                      8                      9
                      A                      A                      A
 Frequencies --    520.1806               670.4147               671.9037
 Red. masses --     10.9737                 6.6219                 2.1196
 Frc consts  --      1.7495                 1.7536                 0.5638
 IR Inten    --      4.5205                40.5724                56.3419
  Atom  AN      X      Y      Z        X      Y      Z        X      Y      Z
     1   6    -0.04  -0.32   0.00     0.37  -0.10   0.00     0.00  -0.00  -0.13
     2   6    -0.05   0.25  -0.00     0.24   0.12  -0.00     0.00   0.00   0.25
     3   8    -0.33  -0.25   0.00    -0.21   0.05  -0.00    -0.00   0.00   0.00
     4   6    -0.17  -0.24   0.00     0.25  -0.01   0.00     0.00  -0.00  -0.06
     5   8     0.43   0.18  -0.00    -0.14   0.23   0.00    -0.00   0.00  -0.06
     6   8    -0.14   0.24  -0.00    -0.05  -0.18   0.00    -0.00  -0.00  -0.10
     7   1     0.12  -0.31  -0.02     0.34  -0.10   0.00     0.00  -0.46   0.21
     8  35     0.05   0.02  -0.00    -0.05  -0.02  -0.00    -0.00  -0.00   0.01
     9   1     0.12  -0.31   0.02     0.34  -0.10  -0.00    -0.00   0.46   0.21
    10   1    -0.09   0.22  -0.00    -0.55   0.07  -0.00    -0.00   0.00   0.63
                     10                     11                     12
                      A                      A                      A
 Frequencies --    726.6142               745.0287               828.3007
 Red. masses --      1.2089                 5.5878                 7.6372
 Frc consts  --      0.3760                 1.8274                 3.0872
 IR Inten    --     49.0129                 8.2888                 7.5637
  Atom  AN      X      Y      Z        X      Y      Z        X      Y      Z
     1   6     0.00   0.00   0.06     0.35   0.38  -0.00    -0.25   0.36  -0.00
     2   6     0.00  -0.00  -0.10    -0.14  -0.02  -0.00     0.24   0.12  -0.00
     3   8    -0.00  -0.00  -0.02     0.05  -0.14   0.00     0.03  -0.29   0.00
     4   6     0.00   0.00   0.00    -0.02  -0.11   0.00    -0.16  -0.19   0.00
     5   8    -0.00   0.00   0.04     0.09  -0.07   0.00    -0.04   0.24  -0.00
     6   8    -0.00  -0.00  -0.03    -0.11   0.14  -0.00     0.12  -0.21   0.00
     7   1     0.02   0.19  -0.08     0.47   0.30   0.05    -0.27   0.32   0.04
     8  35    -0.00  -0.00  -0.00    -0.05  -0.03   0.00     0.02  -0.00   0.00
     9   1    -0.02  -0.19  -0.08     0.47   0.30  -0.05    -0.27   0.32  -0.04
    10   1    -0.00   0.00   0.95     0.10   0.04  -0.00    -0.35   0.03  -0.00
                     13                     14                     15
                      A                      A                      A
 Frequencies --    896.5022              1077.5342              1147.8508
 Red. masses --      2.5563                 2.4624                 1.1507
 Frc consts  --      1.2105                 1.6845                 0.8933
 IR Inten    --      2.9269                88.2510                 0.7272
  Atom  AN      X      Y      Z        X      Y      Z        X      Y      Z
     1   6     0.00  -0.00  -0.19    -0.04   0.06  -0.00    -0.00   0.00   0.03
     2   6     0.00  -0.00  -0.19     0.04  -0.03   0.00    -0.00   0.00   0.04
     3   8     0.00  -0.00  -0.05    -0.05  -0.06   0.00    -0.00   0.00   0.02
     4   6    -0.00   0.00   0.24     0.29  -0.06   0.00     0.00  -0.00  -0.10
     5   8    -0.00   0.00   0.05     0.00  -0.05   0.00     0.00  -0.00  -0.01
     6   8    -0.00   0.00   0.03    -0.10   0.09  -0.00    -0.00   0.00  -0.01
     7   1    -0.44  -0.44   0.19    -0.65   0.12   0.02    -0.69   0.15  -0.01
     8  35    -0.00   0.00   0.01     0.00   0.01  -0.00    -0.00   0.00   0.00
     9   1     0.44   0.44   0.19    -0.65   0.12  -0.02     0.69  -0.15  -0.01
    10   1    -0.00   0.00   0.09    -0.07   0.07  -0.00    -0.00   0.00  -0.00
                     16                     17                     18
                      A                      A                      A
 Frequencies --   1238.0537              1308.4440              1404.5932
 Red. masses --      1.8680                 1.7708                 1.1221
 Frc consts  --      1.6870                 1.7862                 1.3043
 IR Inten    --      8.2459                64.5061                97.7071
  Atom  AN      X      Y      Z        X      Y      Z        X      Y      Z
     1   6     0.09  -0.01   0.00     0.18  -0.02   0.00     0.03  -0.08   0.00
     2   6    -0.18   0.06  -0.00     0.03  -0.01   0.00    -0.03   0.01  -0.00
     3   8     0.01   0.00   0.00     0.02   0.01   0.00     0.00  -0.01   0.00
     4   6     0.01  -0.01   0.00    -0.17   0.02  -0.00    -0.02   0.01  -0.00
     5   8     0.03   0.10  -0.00    -0.00  -0.03   0.00     0.00  -0.00   0.00
     6   8     0.02  -0.11   0.00     0.05   0.02  -0.00     0.03  -0.01   0.00
     7   1    -0.36  -0.01   0.05    -0.54  -0.13   0.15    -0.05   0.54  -0.43
     8  35    -0.00   0.00  -0.00     0.00   0.00  -0.00    -0.00  -0.00   0.00
     9   1    -0.36  -0.01  -0.05    -0.54  -0.13  -0.15    -0.05   0.55   0.43
    10   1     0.69  -0.44   0.00    -0.44   0.27  -0.00    -0.14   0.07  -0.00
                     19                     20                     21
                      A                      A                      A
 Frequencies --   1442.2053              1859.9381              1910.9661
 Red. masses --      2.6813                12.4548                10.8367
 Frc consts  --      3.2859                25.3854                23.3160
 IR Inten    --    324.9184               103.4019               220.8211
  Atom  AN      X      Y      Z        X      Y      Z        X      Y      Z
     1   6     0.05  -0.04   0.00     0.03  -0.04   0.00     0.01   0.00  -0.00
     2   6     0.28  -0.07   0.00    -0.01  -0.02   0.00     0.12   0.76  -0.00
     3   8     0.02   0.01   0.00    -0.07  -0.53   0.00    -0.01  -0.02   0.00
     4   6    -0.14   0.02  -0.00     0.06   0.80  -0.00    -0.01  -0.01   0.00
     5   8    -0.04   0.01  -0.00    -0.01  -0.00   0.00    -0.10  -0.46   0.00
     6   8    -0.17   0.06  -0.00     0.01  -0.00   0.00    -0.01  -0.07   0.00
     7   1    -0.09   0.14  -0.11     0.06  -0.12   0.06     0.02   0.02   0.00
     8  35     0.00  -0.00   0.00    -0.00   0.00  -0.00     0.00  -0.00   0.00
     9   1    -0.09   0.14   0.11     0.06  -0.12  -0.06     0.02   0.02  -0.00
    10   1     0.78  -0.42   0.00     0.10  -0.08   0.00     0.39  -0.19   0.00
                     22                     23                     24
                      A                      A                      A
 Frequencies --   3108.8908              3167.6164              3687.2200
 Red. masses --      1.0607                 1.1041                 1.0646
 Frc consts  --      6.0402                 6.5274                 8.5276
 IR Inten    --     12.5497                 5.1060               122.0262
  Atom  AN      X      Y      Z        X      Y      Z        X      Y      Z
     1   6     0.01   0.07  -0.00     0.00  -0.00  -0.09    -0.00  -0.00   0.00
     2   6    -0.00   0.00  -0.00     0.00  -0.00  -0.00     0.00  -0.01   0.00
     3   8    -0.00  -0.00   0.00     0.00  -0.00  -0.00     0.00  -0.00   0.00
     4   6     0.00   0.00  -0.00     0.00  -0.00  -0.00     0.00   0.00  -0.00
     5   8     0.00  -0.00   0.00    -0.00   0.00   0.00    -0.00   0.00  -0.00
     6   8    -0.00  -0.00   0.00    -0.00   0.00   0.00    -0.03  -0.05   0.00
     7   1    -0.06  -0.40  -0.58     0.06   0.42   0.56     0.00  -0.00  -0.00
     8  35    -0.00  -0.00   0.00    -0.00   0.00   0.00    -0.00   0.00  -0.00
     9   1    -0.06  -0.40   0.58    -0.06  -0.42   0.56     0.00  -0.00   0.00
    10   1     0.00  -0.00   0.00     0.00   0.00  -0.00     0.45   0.89  -0.00

 -------------------
 - Thermochemistry -
 -------------------
 Temperature   298.150 Kelvin.  Pressure   1.00000 Atm.
 Atom     1 has atomic number  6 and mass  12.00000
 Atom     2 has atomic number  6 and mass  12.00000
 Atom     3 has atomic number  8 and mass  15.99491
 Atom     4 has atomic number  6 and mass  12.00000
 Atom     5 has atomic number  8 and mass  15.99491
 Atom     6 has atomic number  8 and mass  15.99491
 Atom     7 has atomic number  1 and mass   1.00783
 Atom     8 has atomic number 35 and mass  78.91834
 Atom     9 has atomic number  1 and mass   1.00783
 Atom    10 has atomic number  1 and mass   1.00783
 Molecular mass:   165.92656 amu.
 Principal axes and moments of inertia in atomic units:
                           1         2         3
     Eigenvalues --   332.584572400.733542722.10513
           X            0.99997  -0.00758  -0.00005
           Y            0.00758   0.99997   0.00015
           Z            0.00005  -0.00016   1.00000
 This molecule is an asymmetric top.
 Rotational symmetry number  1.
 Rotational temperatures (Kelvin)      0.26043     0.03608     0.03182
 Rotational constants (GHZ):           5.42641     0.75175     0.66299
 Zero-point vibrational energy     165598.1 (Joules/Mol)
                                   39.57889 (Kcal/Mol)
 Warning -- explicit consideration of   7 degrees of freedom as
           vibrations may cause significant error
 Vibrational temperatures:     81.80   146.97   211.89   310.23   530.02
          (Kelvin)            551.49   748.42   964.58   966.72  1045.44
                             1071.93  1191.74  1289.87  1550.33  1651.50
                             1781.28  1882.56  2020.90  2075.01  2676.04
                             2749.45  4473.00  4557.49  5305.09
 
 Zero-point correction=                           0.063073 (Hartree/Particle)
 Thermal correction to Energy=                    0.070180
 Thermal correction to Enthalpy=                  0.071124
 Thermal correction to Gibbs Free Energy=         0.029523
 Sum of electronic and zero-point Energies=          -2915.840253
 Sum of electronic and thermal Energies=             -2915.833146
 Sum of electronic and thermal Enthalpies=           -2915.832202
 Sum of electronic and thermal Free Energies=        -2915.873803
 
                     E (Thermal)             CV                S
                      KCal/Mol        Cal/Mol-Kelvin    Cal/Mol-Kelvin
 Total                   44.039             23.360             87.556
 Electronic               0.000              0.000              0.000
 Translational            0.889              2.981             41.227
 Rotational               0.889              2.981             29.165
 Vibrational             42.261             17.399             17.164
 Vibration     1          0.596              1.975              4.563
 Vibration     2          0.604              1.947              3.413
 Vibration     3          0.617              1.906              2.707
 Vibration     4          0.645              1.817              1.996
 Vibration     5          0.741              1.537              1.087
 Vibration     6          0.753              1.506              1.026
 Vibration     7          0.875              1.205              0.610
                       Q            Log10(Q)             Ln(Q)
 Total Bot       0.263161D-13        -13.579779        -31.268596
 Total V=0       0.270243D+16         15.431754         35.532927
 Vib (Bot)       0.593571D-27        -27.226527        -62.691396
 Vib (Bot)    1  0.363331D+01          0.560303          1.290145
 Vib (Bot)    2  0.200828D+01          0.302824          0.697277
 Vib (Bot)    3  0.137792D+01          0.139223          0.320572
 Vib (Bot)    4  0.919023D+00         -0.036673         -0.084444
 Vib (Bot)    5  0.494760D+00         -0.305606         -0.703683
 Vib (Bot)    6  0.470612D+00         -0.327337         -0.753722
 Vib (Bot)    7  0.310252D+00         -0.508286         -1.170372
 Vib (V=0)       0.609544D+02          1.785005          4.110127
 Vib (V=0)    1  0.416756D+01          0.619881          1.427330
 Vib (V=0)    2  0.256958D+01          0.409863          0.943744
 Vib (V=0)    3  0.196583D+01          0.293546          0.675914
 Vib (V=0)    4  0.154623D+01          0.189275          0.435822
 Vib (V=0)    5  0.120341D+01          0.080414          0.185160
 Vib (V=0)    6  0.118664D+01          0.074319          0.171126
 Vib (V=0)    7  0.108844D+01          0.036803          0.084741
 Electronic      0.100000D+01          0.000000          0.000000
 Translational   0.840094D+08          7.924328         18.246439
 Rotational      0.527741D+06          5.722421         13.176361
 -------------------------------------------------------------------
 Center     Atomic                   Forces (Hartrees/Bohr)
 Number     Number              X              Y              Z
 -------------------------------------------------------------------
      1        6          -0.000000238   -0.000000604   -0.000000038
      2        6          -0.000000122    0.000000631    0.000000018
      3        8           0.000000652   -0.000000305   -0.000000036
      4        6           0.000000245    0.000000057    0.000000021
      5        8          -0.000000549    0.000000754   -0.000000012
      6        8           0.000000455    0.000000886    0.000000010
      7        1          -0.000000545   -0.000000409    0.000000034
      8       35          -0.000000017   -0.000001285    0.000000022
      9        1          -0.000000561   -0.000000419   -0.000000027
     10        1           0.000000681    0.000000695    0.000000007
 -------------------------------------------------------------------
 Cartesian Forces:  Max     0.000001285 RMS     0.000000477

 GradGradGradGradGradGradGradGradGradGradGradGradGradGradGradGradGradGrad
 Berny optimization.
 Search for a local minimum.
 Step number   1 out of a maximum of    2
 All quantities printed in internal units (Hartrees-Bohrs-Radians)
 Second derivative matrix not updated -- analytic derivatives used.
 ITU=  0
     Eigenvalues ---    0.00074   0.00386   0.01024   0.02715   0.02856
     Eigenvalues ---    0.03427   0.03624   0.05592   0.08478   0.09561
     Eigenvalues ---    0.12641   0.13126   0.18344   0.20900   0.28920
     Eigenvalues ---    0.33411   0.37775   0.64697   0.72891   0.81690
     Eigenvalues ---    0.90617   1.02310   1.76283   1.83443
 Angle between quadratic step and forces=  71.07 degrees.
 Linear search not attempted -- first point.
 B after Tr=    -0.000004    0.000009    0.000003
         Rot=    1.000000    0.000000    0.000000   -0.000001 Ang=   0.00 deg.
 Variable       Old X    -DE/DX   Delta X   Delta X   Delta X     New X
                                 (Linear)    (Quad)   (Total)
    X1        0.45052  -0.00000   0.00000   0.00000   0.00000   0.45052
    Y1       -1.40726  -0.00000   0.00000  -0.00002  -0.00001  -1.40727
    Z1        0.00060  -0.00000   0.00000  -0.00001  -0.00000   0.00060
    X2       -4.31899  -0.00000   0.00000  -0.00000  -0.00001  -4.31899
    Y2       -0.51964   0.00000   0.00000  -0.00000  -0.00000  -0.51964
    Z2        0.00019   0.00000   0.00000   0.00000   0.00000   0.00019
    X3       -1.32385   0.00000   0.00000   0.00001  -0.00000  -1.32385
    Y3        2.82028  -0.00000   0.00000  -0.00002  -0.00001   2.82027
    Z3       -0.00016  -0.00000   0.00000  -0.00001  -0.00001  -0.00017
    X4       -1.60229   0.00000   0.00000   0.00000  -0.00000  -1.60230
    Y4        0.55726   0.00000   0.00000  -0.00002  -0.00001   0.55725
    Z4        0.00018   0.00000   0.00000  -0.00001  -0.00000   0.00017
    X5       -4.74897  -0.00000   0.00000  -0.00002  -0.00002  -4.74899
    Y5       -2.74705   0.00000   0.00000   0.00000   0.00000  -2.74705
    Z5        0.00051  -0.00000   0.00000   0.00001   0.00001   0.00052
    X6       -6.06077   0.00000   0.00000   0.00002   0.00001  -6.06076
    Y6        1.28011   0.00000   0.00000   0.00001   0.00001   1.28012
    Z6       -0.00019   0.00000   0.00000   0.00001   0.00000  -0.00019
    X7        0.22774  -0.00000   0.00000   0.00001   0.00001   0.22775
    Y7       -2.62466  -0.00000   0.00000  -0.00001  -0.00000  -2.62466
    Z7       -1.66699   0.00000   0.00000  -0.00001  -0.00001  -1.66700
    X8        3.80492  -0.00000   0.00000  -0.00001  -0.00002   3.80491
    Y8       -0.00354  -0.00000   0.00000   0.00002   0.00004  -0.00350
    Z8        0.00055   0.00000   0.00000   0.00001   0.00001   0.00056
    X9        0.22756  -0.00000   0.00000  -0.00000  -0.00000   0.22756
    Y9       -2.62412  -0.00000   0.00000  -0.00003  -0.00001  -2.62413
    Z9        1.66856  -0.00000   0.00000  -0.00001  -0.00001   1.66856
   X10       -5.14828   0.00000   0.00000   0.00004   0.00002  -5.14825
   Y10        2.88430   0.00000   0.00000   0.00000   0.00000   2.88431
   Z10       -0.00039   0.00000   0.00000   0.00000  -0.00000  -0.00039
         Item               Value     Threshold  Converged?
 Maximum Force            0.000001     0.000450     YES
 RMS     Force            0.000000     0.000300     YES
 Maximum Displacement     0.000038     0.001800     YES
 RMS     Displacement     0.000011     0.001200     YES
 Predicted change in Energy=-2.875551D-11
 Optimization completed.
    -- Stationary point found.
 GradGradGradGradGradGradGradGradGradGradGradGradGradGradGradGradGradGrad


 ----------------------------------------------------------------------

 Electric dipole moment (input orientation):
 (Debye = 10**-18 statcoulomb cm , SI units = C m)
                  (au)            (Debye)         (10**-30 SI)
   Tot        0.184897D+00      0.469962D+00      0.156762D+01
   x          0.108996D+00      0.277040D+00      0.924106D+00
   y          0.149355D+00      0.379622D+00      0.126628D+01
   z         -0.109843D-04     -0.279192D-04     -0.931285D-04

 Dipole polarizability, Alpha (input orientation).
 (esu units = cm**3 , SI units = C**2 m**2 J**-1)
 Alpha(0;0):
               (au)            (10**-24 esu)      (10**-40 SI)
   iso        0.578505D+02      0.857256D+01      0.953826D+01
   aniso      0.295800D+02      0.438330D+01      0.487708D+01
   xx         0.729696D+02      0.108130D+02      0.120311D+02
   yx         0.142915D+01      0.211778D+00      0.235635D+00
   yy         0.611619D+02      0.906326D+01      0.100842D+02
   zx         0.158899D-02      0.235465D-03      0.261990D-03
   zy        -0.331970D-02     -0.491929D-03     -0.547344D-03
   zz         0.394201D+02      0.584146D+01      0.649950D+01

 ----------------------------------------------------------------------

 Dipole orientation:
     6          0.96374689         -0.70399997         -0.87116718
     6         -2.57068692          1.87601606         -2.96577018
     8         -2.20672357          1.61050435          1.49774355
     6         -1.31093199          0.95650827         -0.49440054
     8         -1.79072744          1.30657230         -5.01848804
     8         -4.56398969          3.33112060         -2.53875339
     1          2.38115290          0.32612129         -1.98577967
    35          2.48398377         -1.81359787          2.24012309
     1          0.41448958         -2.36797628         -1.98564098
     1         -4.73241932          3.45414420         -0.70501770

 Electric dipole moment (dipole orientation):
 (Debye = 10**-18 statcoulomb cm , SI units = C m)
                  (au)            (Debye)         (10**-30 SI)
   Tot        0.184897D+00      0.469962D+00      0.156762D+01
   x          0.000000D+00      0.000000D+00      0.000000D+00
   y          0.000000D+00      0.000000D+00      0.000000D+00
   z          0.184897D+00      0.469962D+00      0.156762D+01

 Dipole polarizability, Alpha (dipole orientation).
 (esu units = cm**3 , SI units = C**2 m**2 J**-1)
 Alpha(0;0):
               (au)            (10**-24 esu)      (10**-40 SI)
   iso        0.578505D+02      0.857256D+01      0.953826D+01
   aniso      0.295800D+02      0.438330D+01      0.487708D+01
   xx         0.577422D+02      0.855651D+01      0.952040D+01
   yx        -0.133746D+02     -0.198192D+01     -0.220518D+01
   yy         0.491832D+02      0.728820D+01      0.810922D+01
   zx         0.489392D+01      0.725205D+00      0.806899D+00
   zy        -0.357132D+01     -0.529215D+00     -0.588831D+00
   zz         0.666262D+02      0.987298D+01      0.109852D+02

 ----------------------------------------------------------------------
 1\1\GINC-LIGHT3\Freq\RwB97XD\Gen\C3H3Br1O3\ELY\22-Apr-2024\0\\# wB97XD
  gen NoSymm freq\\3bp PES\\0,1\C,0.2384059931,-0.7446908803,0.00031759
 6\C,-2.2855084791,-0.2749828383,0.000099259\O,-0.7005530368,1.49242995
 39,-0.0000840828\C,-0.847896552,0.2948909151,0.0000928042\O,-2.5130487
 058,-1.4536783833,0.0002692338\O,-3.2072222728,0.6774049665,-0.0001007
 52\H,0.1205136001,-1.3889107182,-0.8821331717\Br,2.0134793896,-0.00187
 26724,0.0002893863\H,0.1204215809,-1.3886228934,0.8829664301\H,-2.7243
 501233,1.5263082571,-0.000204309\\Version=ES64L-G16RevA.03\HF=-2915.90
 33264\RMSD=3.465e-09\RMSF=4.774e-07\ZeroPoint=0.063073\Thermal=0.07018
 01\Dipole=0.1089959,0.1493549,-0.000011\DipoleDeriv=0.4101837,0.240694
 9,-0.0000191,0.4483032,-0.1931049,0.0000556,-0.0000549,0.000047,0.0091
 782,1.1689905,-0.3203869,0.000099,-0.1574342,1.5142492,-0.0001977,0.00
 00742,-0.0002064,0.2985853,-0.6756718,0.0342741,-0.000029,0.1288165,-0
 .8555141,0.0000996,-0.0000431,0.000094,-0.2560997,0.7123664,-0.1178414
 ,0.0000468,-0.4673337,0.9087259,-0.0001304,0.000103,-0.000112,0.231280
 5,-0.7021031,-0.1709269,0.0000054,-0.0275817,-0.9843902,0.0001001,-0.0
 00017,0.0000919,-0.3285672,-0.9667222,0.5253352,-0.0001176,0.3111703,-
 0.8900141,0.0001053,-0.0000849,0.0001175,-0.3219141,-0.0487043,-0.0328
 004,-0.0345527,-0.0488934,0.0987755,-0.0130387,-0.0183083,-0.0191612,0
 .082222,-0.3148954,-0.0258206,-0.000007,-0.105553,-0.068278,-0.0000115
 ,0.000006,-0.0000075,-0.107295,-0.0487124,-0.0327904,0.03455,-0.048887
 4,0.0987852,0.0130286,0.0183112,0.0191517,0.082217,0.4652685,-0.099737
 6,0.0000242,-0.0326066,0.3707656,-0.000011,0.0000138,-0.000015,0.31039
 3\Polar=72.9696019,1.4291472,61.1618821,0.001589,-0.0033197,39.4200953
 \Quadrupole=-4.098264,0.6294735,3.4687904,-4.7944357,0.0003546,0.00021
 27\PG=C01 [X(C3H3Br1O3)]\NImag=0\\0.38000795,-0.01298329,0.47871310,-0
 .00000526,0.00000855,0.53030372,-0.02120229,-0.00422859,-0.00000160,0.
 57982105,0.02044786,0.01328391,0.00000210,0.04130893,1.12139789,-0.000
 00555,0.00000068,0.01927236,0.00001642,-0.00014547,0.18079098,0.013656
 84,0.02817836,-0.00000477,-0.00245266,-0.03085343,0.00000319,0.1218514
 4,0.00500861,-0.05510358,0.00001235,-0.00712780,-0.04486545,0.00001035
 ,0.10760506,0.88369202,-0.00000120,0.00001374,0.02205241,-0.00000041,0
 .00000905,0.02474631,-0.00001092,-0.00012698,0.02463891,-0.16432185,0.
 06080230,-0.00001424,-0.16807936,0.01282775,-0.00000556,-0.11956159,-0
 .09124812,0.00001050,0.50477986,0.06162373,-0.11319897,0.00000790,-0.0
 0778709,-0.05994577,-0.00000732,-0.08798377,-0.78608016,0.00010759,0.0
 1914093,1.02565271,-0.00001442,0.00000788,-0.08287589,-0.00000241,-0.0
 0000620,-0.10468175,0.00001010,0.00010736,-0.05902421,0.00001458,-0.00
 012742,0.19553503,-0.00030195,0.00263583,-0.00000013,-0.14805727,-0.15
 771014,0.00002002,-0.00949408,-0.01174022,0.00000147,0.00954648,-0.034
 18011,0.00000445,0.12941289,-0.00178523,-0.00063246,-0.00000086,-0.160
 02481,-0.76684141,0.00010139,-0.01408957,-0.00384575,-0.00000077,-0.00
 723516,-0.03210095,0.00000850,0.15332383,0.89109460,0.00000059,-0.0000
 0057,-0.00529622,0.00002037,0.00010155,-0.06591073,0.00000185,-0.00000
 063,-0.00364416,0.00000025,0.00000694,0.02526760,-0.00001831,-0.000126
 85,0.02874212,-0.00341600,-0.00500940,0.00000064,-0.27035968,0.0861214
 4,-0.00002632,-0.00465045,-0.00163389,-0.00000004,-0.04098878,0.031810
 49,-0.00000839,0.03106200,0.02090523,-0.00000214,0.45592023,-0.0012917
 3,0.00145638,-0.00000051,0.14554805,-0.20811840,0.00003317,-0.01207829
 ,0.01156303,-0.00000257,-0.00084440,-0.01128202,0.00000497,0.04549947,
 -0.09277755,0.00001885,0.03116219,0.65452338,0.00000009,-0.00000072,-0
 .00130150,-0.00003549,0.00002981,-0.04870662,0.00000157,-0.00000200,-0
 .00058780,-0.00000340,0.00000686,0.02098917,-0.00000595,0.00001747,0.0
 1216288,0.00001915,-0.00009505,0.03339059,-0.04108149,-0.01124013,-0.0
 2272307,-0.00024444,0.00124517,-0.00230875,-0.00338483,0.00386382,-0.0
 0249313,0.00831184,0.00911897,0.01909792,-0.00152624,-0.00123170,0.000
 31036,-0.00004000,-0.00079878,0.00050344,0.05003363,-0.01176356,-0.137
 51997,-0.14113386,0.00046921,-0.00078594,0.00213410,0.00348930,-0.0016
 1218,0.00221830,-0.00217650,-0.01500924,-0.01939581,-0.00056795,0.0003
 8814,-0.00015959,0.00006680,0.00011279,-0.00015201,0.01364357,0.147045
 52,-0.02188608,-0.13582359,-0.22755988,0.00033383,-0.00238341,-0.00030
 095,-0.00024998,0.00175423,-0.00108960,-0.00009128,0.00191236,0.001483
 88,-0.00108417,0.00109669,0.00057555,-0.00015164,0.00072009,0.00003128
 ,0.02109882,0.14438166,0.24133924,-0.12195328,-0.04416206,0.00000231,0
 .00230808,0.00412762,-0.00000057,0.00307534,-0.00125193,0.00000037,-0.
 03340568,-0.01600002,0.00000073,-0.00051036,0.00013078,-0.00000005,-0.
 00328632,0.00104688,-0.00000035,-0.01411418,-0.00370057,0.00303808,0.1
 8223631,-0.04713556,-0.04774649,0.00000073,0.00099189,-0.00313458,0.00
 000075,0.00403001,0.00237380,-0.00000028,0.00916083,0.00299895,0.00000
 023,-0.00091210,0.00111394,-0.00000021,0.00044121,0.00065182,-0.000000
 09,-0.01548660,-0.00357020,0.00412349,0.06445037,0.05077019,0.00000274
 ,0.00000087,-0.02805921,-0.00000012,0.00000091,0.00126277,-0.00000042,
 -0.00000059,-0.00087213,-0.00000333,-0.00000104,0.00143725,0.00000010,
 -0.00000015,0.00011596,-0.00000024,-0.00000006,-0.00009675,-0.01434022
 ,-0.00376445,0.00459883,-0.00000184,-0.00000215,0.01703001,-0.04108567
 ,-0.01124712,0.02274575,-0.00024469,0.00124555,0.00230841,-0.00338503,
 0.00386470,0.00249165,0.00831371,0.00911295,-0.01910011,-0.00152642,-0
 .00123163,-0.00031026,-0.00003999,-0.00079882,-0.00050320,0.00138167,0
 .00074850,-0.00092792,-0.01411539,-0.01548152,0.01434333,0.05003779,-0
 .01177160,-0.13743039,0.14110317,0.00046934,-0.00078589,-0.00213393,0.
 00348955,-0.00161341,-0.00221781,-0.00217842,-0.01500352,0.01940096,-0
 .00056761,0.00038785,0.00015962,0.00006687,0.00011260,0.00015200,0.000
 75045,0.01107705,-0.01574676,-0.00370196,-0.00357034,0.00376672,0.0136
 5214,0.14695205,0.02190912,0.13579287,-0.22764442,-0.00033400,0.002383
 69,-0.00030081,0.00024861,-0.00175365,-0.00108807,0.00009268,-0.001906
 03,0.00147621,0.00108408,-0.00109674,0.00057593,0.00015160,-0.00072018
 ,0.00003142,0.00092980,0.01573703,-0.01906444,-0.00303882,-0.00412245,
 0.00460011,-0.02112288,-0.14434935,0.24142794,-0.00030227,-0.00274589,
 0.00000037,0.02851125,0.02123924,-0.00000131,0.00434503,-0.00734025,0.
 00000171,-0.00459463,0.01514392,-0.00000246,-0.00860505,0.01123825,-0.
 00000266,-0.16420101,-0.20744456,0.00002414,0.00066405,-0.00020879,-0.
 00007966,-0.00023452,-0.00005854,0.,0.00066403,-0.00020875,0.00007980,
 0.14375312,-0.00034923,-0.00182152,0.00000043,-0.00961913,-0.05020438,
 0.00000627,-0.00178723,-0.00450832,-0.00000026,0.00175078,0.00396897,-
 0.00000048,0.00421901,0.00321358,0.00000089,-0.16393094,-0.35624203,0.
 00004374,0.00013523,-0.00012598,-0.00003475,-0.00093911,0.00011289,-0.
 00000007,0.00013525,-0.00012600,0.00003480,0.17038537,0.40573280,-0.00
 000003,0.00000031,0.00110864,0.00000341,0.00000797,-0.00617156,0.00000
 077,-0.00000044,-0.00513167,-0.00000021,0.00000015,0.00039271,-0.00000
 156,0.00000131,0.00741108,0.00001737,0.00004130,-0.01591267,-0.0000751
 7,0.00013462,-0.00001392,0.00000013,-0.00000002,-0.00001685,0.00007521
 ,-0.00013461,-0.00001387,-0.00001993,-0.00005058,0.01834811\\0.0000002
 4,0.00000060,0.00000004,0.00000012,-0.00000063,-0.00000002,-0.00000065
 ,0.00000031,0.00000004,-0.00000025,-0.00000006,-0.00000002,0.00000055,
 -0.00000075,0.00000001,-0.00000045,-0.00000089,-0.00000001,0.00000055,
 0.00000041,-0.00000003,0.00000002,0.00000128,-0.00000002,0.00000056,0.
 00000042,0.00000003,-0.00000068,-0.00000070,0.\\\@


 I (ERNEST RUTHERFORD) CAME INTO THE ROOM, WHICH WAS HALF DARK, AND PRESENTLY
 SPOTTED LORD KELVIN IN THE AUDIENCE AND REALIZED I WAS IN TROUBLE AT
 THE LAST PART OF MY SPEECH DEALING THE AGE OF THE EARTH, WHERE MY VIEWS
 CONFLICTED WITH HIS.  TO MY RELIEF KELVIN FELL FAST ASLEEP, BUT AS I CAME
 TO THE IMPORTANT POINT, I SAW THE OLD BIRD SIT UP AND COCK A BALEFUL GLANCE
 AT ME! THEN A SUDDEN INSPIRATION CAME AND I SAID LORD KELVIN HAD LIMITED
 THE AGE OF THE EARTH PROVIDED NO NEW SOURCE WAS DISCOVERED. THAT
 PROPHETIC UTTERANCE REFERS TO WHAT WE ARE NOW CONSIDERING TONIGHT, RADIUM!
 BEHOLD!  THE OLD BOY BEAMED UPON ME.
 Job cpu time:       0 days  0 hours 17 minutes 19.1 seconds.
 Elapsed time:       0 days  0 hours  1 minutes 44.1 seconds.
 File lengths (MBytes):  RWF=     32 Int=      0 D2E=      0 Chk=     81 Scr=      1
 Normal termination of Gaussian 16 at Mon Apr 22 20:52:01 2024.
